381
Atoms. Timestep: 79990000
C -25.1833 2.95593 -2.30098
C 28.2204 4.2845 5.18237
C -18.2084 5.19831 -1.54824
C 26.3794 5.71394 -4.77421
C -20.5263 0.0761051 -3.34686
C -20.8384 2.21909 -4.554
C -23.2902 1.57109 2.99883
C -23.04 -2.59073 8.02028
C 26.2323 3.86545 1.87937
C -21.381 9.81712 5.40803
C 29.1548 -3.44034 4.5787
C -25.0027 4.45493 -2.16234
C -26.5428 7.04642 7.83997
C 26.4452 5.97668 -2.0744
C -26.5093 0.707041 3.68791
C 29.4282 6.34327 5.82545
C -26.0463 1.04854 -1.08298
C -24.3897 1.37683 3.80144
C -24.894 0.241534 -1.26268
C -23.8953 6.6832 -0.967233
C -18.0126 7.34661 -0.533435
C -19.0543 0.959203 -1.19233
C -26.5192 -3.47984 6.42755
C -21.1277 0.0078458 -5.61436
C -26.9463 -0.614514 0.57195
C 29.252 -2.89671 5.8208
C 28.3665 -2.07961 6.29321
C 28.8395 -1.40791 7.28087
C -23.4675 9.86384 4.04951
C -19.9313 -2.17319 -2.24596
C -22.4746 6.20471 -6.29911
C 30.0489 -0.970138 2.91328
C -23.9028 5.15637 -8.20526
C -27.0483 0.584014 -0.278381
H 18.9661 -1.68969 -7.9016
C -22.7021 10.2855 -1.10506
C -26.247 -1.29387 -7.62378
C -24.1134 -0.954882 -6.53481
C -25.2888 -1.87654 -6.79415
C 26.8733 5.58056 3.08401
C -23.0063 5.70504 -1.32221
C -22.4678 -3.38325 5.4419
C -26.8919 9.39765 -4.53134
C 28.0603 8.03962 -2.48076
C 26.1963 6.28097 -0.768261
C -24.7816 -3.98181 5.08129
C -26.0442 5.97666 -8.27088
C 28.3839 8.04968 1.95413
C -21.1473 -2.74121 -3.00598
C -27.3382 10.2287 0.000536855
C -19.7973 -0.867739 -2.51521
C -22.4338 6.15024 0.852172
C -21.6409 9.78335 2.66749
C -22.5492 0.609949 2.15107
C -26.5444 4.34105 -0.613566
C -24.7696 10.2351 -2.61703
C -23.4436 -0.473796 2.11027
C 26.8726 -0.420935 5.33715
C -21.5194 1.79169 -1.21502
C 29.6818 7.54039 5.43281
C -23.087 3.35467 -2.52205
C -26.762 2.26095 9.50645
C 26.2127 -2.67539 -2.00546
C -24.4529 8.6555 -4.83961
C -26.647 4.39891 3.11649
C -26.2067 10.9198 -0.791908
C -22.6217 -0.118489 -0.220733
C 26.9162 2.16591 4.58803
C 26.625 -0.485234 2.65444
C -26.2832 2.42413 -1.68185
C 28.4968 -4.15436 1.84677
C 26.4592 -0.214856 3.97533
C 28.0593 -0.0365101 7.38306
C 29.3887 1.39242 2.55161
C -26.4242 0.836187 9.26497
C -25.662 -2.93317 7.52901
C -23.0364 3.577 10.5676
C 25.4764 -1.37793 -1.36936
C 28.531 -4.1315 0.587545
C 25.8568 0.228934 0.251222
C 29.8565 3.44462 1.37071
C 26.7947 -3.79753 -5.72021
C -23.7717 -3.231 -4.49148
C -26.9712 5.80592 7.61902
C -21.7246 1.82298 9.2052
C 29.3212 8.15203 4.09394
C 29.1312 0.533467 1.35107
C 25.7774 3.81546 -0.583973
C -25.1869 9.77424 5.80302
C 28.1717 8.17982 -1.00124
C 27.152 7.05328 -2.85604
C -27.4996 9.68107 5.06324
C -21.3235 8.75746 -1.81263
C 29.575 9.50574 3.96992
C 27.3386 7.27283 1.05727
C -23.4142 -0.960634 0.687403
C 30.2097 2.34136 8.62334
C -22.7096 4.9695 10.448
H -0.915097 -18.3192 -13.1183
C -23.9191 1.00999 -1.9345
C -26.8815 10.1721 -3.33135
C -27.6886 -2.91979 6.7297
C 30.142 3.43896 7.83372
C 29.7861 0.27621 -8.46875
C -22.1524 9.86416 3.98326
C 28.8992 8.65354 -4.80854
C -26.0664 10.2083 1.94188
C 29.8647 1.14973 0.309949
C -18.6185 1.73107 -0.167418
C -22.2028 9.71224 -2.24654
C -19.759 -0.759202 0.0971015
C -19.7105 -0.116538 1.45667
C -20.5284 1.25839 5.31996
C -18.0363 3.03948 1.75058
C -21.4251 -2.17972 -4.34681
C -25.933 -2.95809 -5.92612
C -19.0867 -0.448816 -1.34369
C -25.9015 -5.56832 3.37246
C 16.8241 10.7898 19.3524
C 29.8503 2.77475 2.56705
C -22.7215 3.64826 1.70831
C 28.2491 5.6285 5.17639
C -24.8926 10.6223 1.25377
C -21.8574 10.1115 -0.0401328
C -22.5613 9.89954 1.40975
C -22.6739 9.22092 -3.61939
C -20.7319 7.88187 -2.66973
C -26.5941 -1.60996 2.78795
C -19.0341 5.889 -2.60585
C 23.5243 25.501 -4.30397
C -18.3453 3.58892 2.8843
C -18.5531 7.24995 6.79874
C 28.7945 9.22754 -0.202788
C -25.9146 7.65054 -6.32402
C 27.6859 -4.57476 -3.45271
H 15.1377 -3.79627 -18.3866
C -19.7413 9.21434 7.05279
C 28.2637 -1.60084 -7.4888
C -26.0493 10.8289 -2.30142
C -22.7363 -3.96373 1.0307
C -24.6895 -0.55419 0.0627
C -19.6766 1.37127 3.33769
C 27.0111 3.13374 -7.38264
C -22.47 7.99925 -4.19685
C -24.0498 2.37515 -2.67969
C -26.887 -4.8785 4.39197
C -24.5442 -0.870533 2.80683
C 28.5994 -4.84232 -4.43814
H 1.96428 2.81097 1.1594
C -26.706 -4.88233 -2.04253
C -23.6725 7.49214 -4.98814
C 27.5153 -3.26386 0.0710426
C -22.4549 -3.81019 3.2095
C -26.4482 -5.22123 -0.709819
C 26.7 5.06227 -6.03446
C -24.9498 -4.97436 1.03397
C -18.7349 5.97997 7.55778
C -19.7363 3.4163 4.78544
C -17.6764 6.96672 4.50447
C -27.092 3.19497 -0.90092
C 18.0151 10.2019 19.889
C -19.0439 1.03974 2.08388
C -25.0266 -5.04347 -0.362746
C -20.2053 -1.19311 2.22157
C -20.1338 0.466283 4.16064
C -20.4533 -2.07743 0.328667
C -22.9975 9.33231 7.5335
H 24.7538 25.0166 -6.49139
C -24.6004 7.72146 8.68166
H 12.73 18.1984 -22.8687
C 29.9575 2.65505 0.179577
C -25.6015 6.80005 8.68325
C -18.9993 8.20109 7.50443
C -25.0122 5.54888 8.96134
C -22.465 -0.512416 9.16154
C 27.4348 -1.72412 1.89953
C 28.0702 -2.68236 4.05011
C 24.9389 1.14652 -1.57327
C 25.7121 3.57342 -1.98028
C 27.3592 -0.596417 -7.29542
C -25.634 -4.56403 -2.98764
C -27.0856 -4.6415 -4.84738
C -25.0173 -3.82413 -5.25715
C -25.7586 8.59938 -5.02455
C 27.7321 -2.92424 2.71305
H -3.24501 16.9341 23.2049
C -25.1405 0.387803 9.76689
C -18.21 7.66333 5.44892
C -21.941 8.67446 8.30453
C 28.1017 -4.19257 -5.7274
C -20.0876 2.58303 7.12016
C 30.0345 -4.34485 3.75633
C 29.8917 -4.84416 -3.87986
C 29.6948 -4.59518 2.47321
C -27.1841 4.51916 1.95936
C -22.0061 -0.523152 -6.26209
C -23.2954 7.41256 0.192541
C -27.376 -4.99801 1.54006
C -23.5391 7.15316 9.12789
C -25.9168 4.50123 9.3118
C -25.4922 2.8976 9.60455
C -25.938 -1.82172 8.39052
C 27.0734 6.72407 -4.32965
C -21.3851 0.264978 6.0389
C 28.2194 3.4887 -8.11098
C 25.7734 -0.76503 -5.45984
C -21.5764 -0.881956 8.18596
C -22.0748 -2.02862 7.34886
C -23.7425 5.76953 9.61312
C -24.2091 2.57495 10.2117
C -25.5927 5.29317 -1.28212
C 27.828 5.48364 -6.8317
C -27.3779 6.22129 -7.74804
C -25.5267 10.0623 3.29434
C -26.1731 10.0187 4.64737
C 29.7608 9.62985 -1.02196
C 26.8289 3.69579 4.56625
C -21.3574 5.54358 10.39
H 14.4201 -3.3868 -18.5838
C -22.5391 8.29554 0.798804
C 27.9415 6.14771 3.87468
C -19.5465 1.78622 -2.25637
C 28.1265 7.58177 3.32647
C 30.1059 -1.82812 7.59588
C -21.1217 -1.89441 4.27863
C -20.5601 2.7183 5.70259
C -23.8271 0.171561 -7.40919
C -23.6023 -1.62218 9.05843
H 12.692 17.7554 -23.7193
C 25.5389 1.69951 -6.13767
C -21.8237 5.32807 -0.356386
C -25.1742 0.186627 3.64262
C -25.3133 6.41355 -0.563377
C -19.5116 2.84715 3.58822
C -21.8438 5.33947 -5.32867
C 28.6483 6.61041 -6.24518
C -24.158 -4.03957 1.54419
C -20.272 -1.01745 3.58258
C -19.264 5.77364 8.85171
C -25.7913 -0.961578 0.868367
C -26.6199 2.00978 -9.66957
C -27.428 4.25532 -9.16638
C -26.6229 2.12338 3.89184
C -22.5973 5.39068 -7.60676
C -22.9363 -1.49654 -5.87985
C -25.3119 2.60997 -9.51084
C -26.1289 4.87265 -9.18495
C -21.8059 1.30896 -7.93828
C 26.654 1.7162 -7.02852
C -26.943 0.643078 -8.93257
C -21.4469 -3.938 -1.07571
C -25.5502 9.46901 7.22908
C 28.5939 4.83738 -7.91935
C 26.7808 6.04004 1.74921
C -22.7043 -2.46652 -4.93289
C -27.5218 -2.06422 -7.72405
C 25.1794 0.538093 -5.49661
C 16.3545 11.9544 19.1862
C -23.9649 9.61994 -3.6024
C -23.7341 -4.2155 2.9549
C -17.9752 3.76987 -1.75215
C 26.1346 3.70573 -6.51279
C 25.038 -0.154307 -3.50001
C 26.5224 -1.45018 -6.43056
C -27.144 7.64938 -6.22554
C 24.9819 2.32445 -3.66227
C -19.9673 6.92393 9.44089
C -21.2647 -1.16144 5.55079
C 27.8559 -3.00446 -7.40886
C -20.4411 -2.9679 -0.88145
C -21.0648 4.16339 -5.83949
C -20.6512 9.09533 8.22888
C -20.6993 4.23843 9.97663
C -23.1811 2.94063 2.82023
C -21.6937 3.05806 10.1507
C -18.6609 9.17322 0.889103
C 26.6611 -3.8347 -4.19889
C -27.3911 -4.67921 0.239306
C 25.2802 2.98891 -5.72973
C -22.8794 2.1751 -8.59089
C 25.196 1.52953 -0.135868
C -26.9941 -3.8684 -6.0563
C -25.7817 -4.34449 -4.27554
C -24.8577 6.77395 -6.53168
C 28.8422 9.28055 1.60044
C -21.1425 6.90387 9.88862
C 25.014 25.4347 -4.08942
C 27.7329 -1.61262 5.0959
C -18.9569 8.7749 4.92991
C 27.0797 -1.89349 0.545962
C -24.5493 3.63365 3.53507
C -23.6536 -4.52993 -1.07367
C -27.2978 0.0683093 8.42242
C -24.3092 -3.2468 7.25236
C 25.9007 5.04024 1.29845
C -21.6283 3.94701 -0.484835
C 25.2923 3.46593 -4.41701
C 26.7223 4.0441 3.23909
C -24.7677 6.1636 -7.84192
C -21.1176 5.70029 -4.04941
C -22.1709 7.55665 9.19032
C 25.9641 4.71784 -2.72642
C -22.5042 0.317968 -7.25983
C -20.804 3.53088 -4.60379
C -21.0102 2.01081 -7.12948
C -24.2186 1.79202 -8.90497
C -25.4096 -1.84378 2.12298
H -15.6497 -26.9027 2.87666
C -21.8012 -2.33122 6.21641
C -24.9687 10.8288 -0.175882
C -23.8396 4.1731 -9.13185
C -23.7071 10.4246 1.89115
C -19.3953 3.72305 7.50034
C -19.6499 4.27314 9.05424
C -21.9752 4.12193 -7.89127
C -27.6344 2.73434 -9.21531
C -20.3755 1.3962 -3.39425
C 30.126 -3.15204 -6.92821
C 29.4357 -1.18205 -8.09641
C -19.212 3.15702 -2.37876
C -20.8662 1.44086 -5.84461
C 26.7502 -2.78314 -6.72112
C -24.5329 0.492117 -8.46765
C 25.9934 -2.72943 -3.4887
C 25.5969 -1.47004 -4.21318
C 24.7657 2.46971 -2.15553
H -2.8447 17.6168 23.198
C -25.8869 -0.193695 -8.41283
C 27.4914 0.715409 -7.62694
H -0.383013 -18.716 -12.3452
C 26.3322 -0.91288 -0.299908
C -20.6312 -2.54374 1.60033
C 30.1429 8.51175 -5.35068
C 25.5905 4.82564 -4.00422
C 28.0945 7.29808 -5.17135
H 19.088 -2.24384 -7.39115
C 27.9712 -4.54435 -2.1263
C -24.2875 9.87862 3.01299
C 28.7848 -3.73158 -6.79898
C -20.9366 1.65701 8.05871
C -22.6848 0.805044 9.79638
C 29.1616 -4.51849 -1.61698
C 27.1519 -3.38906 -1.32616
C 24.7875 -0.23374 -2.13098
C 30.1303 -4.68202 -2.53824
C -22.5238 0.835334 -1.34816
C -21.8029 -3.25419 4.20794
C -27.257 -1.33221 8.46235
C 28.6721 1.23554 7.58855
H -24.4489 31.9937 26.526
C -24.5992 -4.82791 3.93206
C -26.2073 -4.41186 5.52611
C 29.5682 -4.63827 -0.443688
C 27.1939 0.448062 6.29192
C -23.5347 4.63579 -2.31188
C 24.8616 0.945489 -4.0588
C 27.2634 1.87441 5.93213
C -21.4078 -0.632538 -4.36117
C -25.1133 3.9584 -9.62832
C 25.7566 5.12353 -0.0715197
C 29.1233 2.41686 -8.22821
C -23.2929 -3.93557 -3.1272
C -22.5249 3.40832 -9.00931
C -21.2162 3.58611 -6.93322
H 1.94854 3.22161 1.77795
C -24.0324 10.6023 -1.29051
C -20.9279 9.2783 -0.69572
C 29.8183 5.21298 -8.22691
C -23.8782 6.50527 -5.70865
C 25.167 2.85949 0.483227
C -27.659 8.61848 6.03306
C 25.5754 2.69068 1.87095
C 29.7688 4.12334 6.72433
H -16.0965 -26.7707 2.57416
C -24.9496 -1.02786 9.11671
C -24.0815 1.15989 10.1598
C -23.7742 -3.89232 6.14839
C -21.8238 -3.47293 1.94837
H -24.5081 31.7872 27.086
C -21.3205 7.24557 -3.68099
C -19.0551 8.05971 -1.2634
381
Atoms. Timestep: 80000000
C -25.6988 3.26128 -2.79261
C 28.2748 5.12196 5.16551
C -18.1896 3.47107 -1.68639
C 27.6545 5.10599 -4.31204
C -20.2504 -1.78062 -3.16044
C -21.0493 0.498397 -4.22447
C -24.4157 1.90632 2.66593
C -23.9756 -2.08949 8.97315
C 25.8638 5.18144 2.62308
C -19.8375 8.57297 4.406
C 27.8113 -2.4815 5.46496
C -24.8076 4.39948 -2.79976
C -25.854 7.79178 7.89728
C 27.4336 6.46337 -1.93146
C 30.1682 2.96436 3.55653
C 30.1288 7.03409 5.84649
C 30.1047 2.37777 -1.96835
C -25.589 2.41867 3.45093
C -27.0186 1.31142 -1.59623
C -22.7957 5.67012 -1.58811
C -16.9199 5.38394 -1.02907
C -19.274 -0.272873 -0.754175
C -27.4329 -2.61145 7.19743
C -21.8473 -1.61054 -5.40952
C 28.2049 1.74888 -0.200511
C 28.3656 -1.91343 6.41994
C 27.5612 -0.443146 6.56509
C 28.2615 0.147427 7.57091
C -21.7159 9.41681 3.44706
C -21.0822 -3.5293 -1.50582
C -21.8336 4.72632 -6.51087
C 28.1436 2.23032 1.97683
C -23.9336 4.16774 -7.76629
C 29.047 2.62305 -0.981228
H -0.171253 -23.6719 -21.9641
C -21.2372 9.40016 -1.82648
C -27.0239 -2.376 -7.29339
C -24.6328 -2.72312 -6.80042
C -26.0918 -2.97237 -6.51919
C 27.2385 6.74654 3.50981
C -22.409 4.69726 -2.29972
C -23.6226 -2.87108 6.15651
C -25.5323 8.79377 -4.71166
C 29.2055 7.80957 -2.24778
C 27.1963 6.71314 -0.501013
C -25.9142 -3.31561 5.89693
C -26.1475 5.0596 -8.26421
C 29.0101 8.59015 2.05714
C -22.0199 -3.89946 -2.62364
C -25.6494 9.62925 -0.539365
C -20.3024 -2.28636 -1.70796
C -21.6248 4.65759 -0.066011
C -19.8004 9.17382 1.81824
C -24.7615 0.53821 2.14337
C -26.2236 5.68964 -1.77892
C -23.173 9.39679 -3.24427
C -26.2133 0.566287 1.9937
C 25.8891 0.962475 5.9986
C -23.1454 0.510095 -1.26646
C -27.0877 7.92823 5.06161
C -23.3896 2.54761 -2.85262
C -26.5166 3.57595 9.79903
C 25.6165 -1.21217 -1.30908
C -23.2801 7.81003 -4.90766
C -26.151 5.77812 2.04705
C -24.5735 9.64026 -1.37955
C -25.0483 -0.194594 0.015321
C 26.1327 3.95432 5.50321
C 25.9379 0.960342 3.40378
C -27.0547 3.44439 -2.41756
C 28.3064 -2.27024 2.69526
C 25.6917 1.53871 4.78004
C 27.5769 1.47844 7.63464
C 28.7616 4.28386 1.92917
C -26.3538 1.99003 9.62813
C -26.3219 -1.82802 7.94207
C -22.8726 3.98044 9.63924
C 25.069 -0.0380697 -0.547501
C 27.9033 -2.53728 1.22567
C 25.948 1.88445 0.913613
C 30.1459 5.52098 0.398128
C 25.6864 -3.24901 -4.32576
C -24.53 -4.06137 -3.83305
C -26.8247 6.80489 8.15645
C -21.7093 1.74943 8.71437
C -27.4539 8.18197 3.69757
C 28.117 3.91637 0.606443
C 25.7606 4.69284 -0.197231
C -23.5091 9.62756 5.18418
C 28.9135 8.18446 -1.01471
C 28.5809 6.67196 -2.43559
C -25.597 9.16222 3.86773
C -20.0294 7.65226 -2.37605
C -26.2992 8.2699 2.99809
C 27.9967 7.82134 1.30687
C -26.3072 0.279819 0.569847
C 29.9965 3.78451 9.52174
C -22.0685 5.26405 10.0663
H 6.9837 6.7445 -7.21004
C -25.435 1.24116 -1.98092
C -25.6835 9.39749 -3.40142
C 29.5049 -1.7174 7.04999
C 29.7363 5.16492 9.04988
C 29.2177 -0.301259 -7.44028
C -20.4732 8.75321 3.18503
C -27.5625 7.64723 -4.22438
C -24.5886 9.94116 1.36164
C 28.8323 4.03638 -0.462933
C -18.3689 0.176356 0.152436
C -20.8991 8.461 -2.82638
C -20.1424 -1.97851 0.662719
C -19.6586 -1.28987 1.84565
C -19.8727 -0.0813828 5.91961
C -17.2845 1.46507 1.83574
C -22.2044 -3.05805 -3.87398
C -26.5573 -3.60414 -5.49677
C -19.7662 -1.67838 -0.639047
C -26.9894 -4.56157 4.46674
C 13.5409 15.9401 9.97742
C 29.7968 5.18237 1.8487
C -22.8102 3.01726 1.01632
C 29.0017 6.28309 5.00318
C -23.2535 10.2404 0.480057
C -20.7194 8.55529 -0.560273
C -20.9112 9.14741 0.728403
C -21.3526 7.98049 -4.02325
C -19.4672 6.57888 -3.172
C 28.1098 0.864008 2.42375
C -18.4876 4.20123 -2.98839
C 25.796 -27.993 7.43222
C -16.9764 1.63639 3.12153
C -16.9684 6.18086 6.51236
C 30.0564 8.78159 -0.272524
C -24.7214 7.30567 -6.33828
C 26.9273 -3.48768 -2.50592
H -4.82185 -2.89162 -23.3778
C -18.1116 8.40557 6.43935
C 27.4926 -1.76624 -6.95024
C -24.6104 9.68494 -2.82426
C -23.49 -4.94311 2.02249
C -27.3732 0.914934 -0.231321
C -18.777 -0.174802 3.75237
C 26.7314 3.2971 -7.1442
C -21.1843 6.66906 -4.6426
C -24.7572 2.22365 -2.86873
C 29.9441 -3.81322 5.17858
C -27.4454 1.05264 2.49738
C 27.7292 -4.06459 -3.67188
H -7.1827 30.2878 -22.5414
C -27.6495 -4.59708 -1.18079
C -22.5538 6.63147 -5.19483
C 26.9284 -1.81554 0.60696
C -23.3128 -3.90146 3.95887
C -27.3592 -4.05278 0.185533
C 27.3846 5.18489 -5.627
C -26.2204 -5.02549 2.254
C -17.4261 4.87214 7.18568
C -17.9885 1.68742 5.13549
C -16.5415 5.34374 4.0625
C -27.3916 4.64319 -2.03828
C 12.4098 16.5318 9.20369
C -19.0184 -0.156744 2.44553
C -26.2396 -4.57357 0.79663
C -20.6237 -2.02528 2.65347
C -19.8813 -0.854689 4.64753
C -21.1401 -3.29831 0.870224
C -21.4542 8.82427 6.73361
H 27.0118 -27.8473 5.17265
C -23.4796 8.06288 8.39148
H 6.00604 6.16258 17.7166
C 29.7491 4.85753 -0.940877
C -24.8761 7.74204 8.92388
C -17.2489 7.41792 7.06877
C -24.6765 6.45155 9.76023
C -23.1802 -0.125403 9.3018
C 27.0243 -0.164809 2.93123
C 26.7803 -1.43709 4.82132
C 24.7259 2.33462 -0.835133
C 25.4995 4.35849 -1.49726
C 26.6924 -0.572374 -6.79186
C -26.5858 -4.82164 -1.98186
C 30.0895 -4.51151 -4.26223
C -25.799 -3.92569 -4.23537
C -24.3446 8.44183 -5.46695
C 26.9334 -1.58868 3.42165
H 3.90895 -25.0877 13.5951
C -25.1595 1.09241 9.52293
C -17.0188 6.38396 5.04943
C -20.6351 8.21473 7.71575
C 26.9734 -4.00145 -4.73713
C -19.716 1.865 7.32119
C 29.002 -3.0351 4.47047
C 29.0708 -4.22479 -3.35199
C 29.2053 -2.81071 3.28532
C -26.701 6.17141 0.782952
C -22.541 -2.12141 -6.4416
C -21.8943 6.17408 -0.511141
C 29.9307 -3.8018 2.41022
C -22.6249 7.11313 9.06087
C -25.6595 5.63782 9.9159
C -25.3068 4.27555 10.1765
C -26.5511 -0.754215 8.71019
C 28.5299 6.08169 -3.86109
C -20.827 -0.946735 6.69111
C 27.8543 3.29239 -7.68151
C 24.97 -0.16223 -4.74568
C -22.5362 -0.849799 8.30628
C -22.691 -2.07694 8.66247
C -23.0974 6.23252 9.97836
C -24.0479 3.3776 9.73435
C -24.9765 5.60231 -2.3739
C 28.4606 5.57827 -6.48756
C -27.327 5.66521 -7.81716
C -23.8653 9.78631 2.58697
C -24.3093 9.7048 3.73776
C -26.8955 9.45368 -1.09608
C 26.9654 4.78918 4.7395
C -20.6821 5.20155 9.77704
H -4.12509 -3.31023 -23.3905
C -21.5147 7.29392 0.338866
C 28.2104 7.2893 4.34714
C -19.6514 0.440352 -1.96917
C 29.0867 8.07903 3.39217
C 29.3522 -0.437166 7.86385
C -21.6001 -2.49882 5.16448
C -18.9141 1.12851 6.11921
C -24.506 -1.68157 -7.87898
C -24.2094 -0.900725 9.57612
H 5.91713 6.35283 18.7623
C 25.2772 2.28912 -5.95909
C -21.5916 3.96671 -1.45588
C -26.9721 1.95728 3.28736
C -23.9974 6.32578 -1.72332
C -17.77 0.908185 4.03303
C -20.862 3.99333 -5.74339
C 29.5448 6.32909 -5.94563
C -24.8573 -4.9465 2.6766
C -20.8201 -1.75156 4.19317
C -18.4418 4.94345 8.30692
C 29.1914 0.879335 0.33605
C -27.1637 1.23156 -8.50761
C -27.7089 3.70443 -8.84817
C -27.0382 3.97532 3.44393
C -22.5348 4.03694 -7.58945
C -23.5513 -3.14475 -6.00883
C -26.0679 1.37979 -9.32675
C -26.3465 3.79005 -9.00026
C -22.8441 0.0267143 -7.40904
C 26.2353 1.94591 -6.98113
C -27.5848 -0.0794469 -8.2127
C -22.9906 -4.30956 -0.514154
C -23.9358 9.26935 6.43411
C 28.3717 4.70169 -7.69078
C 26.9373 7.25298 2.19223
C -23.4358 -3.44559 -4.55815
C 29.7826 -2.58349 -6.94939
C 24.8415 1.18328 -5.07899
C 12.0779 17.9392 9.15686
C -22.5209 8.6282 -4.18869
C -24.7098 -4.44144 3.80602
C -18.544 2.09433 -1.58164
C 26.5009 4.28889 -5.88378
C 24.4042 0.623652 -2.62537
C 25.6884 -1.07265 -5.86435
C -26.1708 7.28948 -6.31261
C 24.9034 2.82366 -3.26729
C -18.9988 6.18839 8.72521
C -21.5903 -2.1377 6.5563
C 26.7228 -2.92097 -6.54817
C -21.4608 -4.0829 -0.162216
C -20.791 2.45641 -5.80421
C -19.0624 8.22458 7.65451
C -20.7216 4.04576 8.85805
C -23.843 2.99904 2.15682
C -21.7579 3.09591 8.90788
C -17.4511 7.15978 0.269924
C 25.8134 -2.76545 -3.03187
C 29.6018 -4.21294 1.09715
C 25.5582 3.59562 -5.33562
C -23.6531 0.616439 -8.69635
C 24.9864 2.75306 0.508438
C 30.0316 -3.95245 -5.3198
C -26.6645 -4.60122 -3.48424
C -24.1022 6.0696 -6.78318
C 30.2208 8.74952 1.16587
C -20.207 6.62095 9.26293
C 26.9061 -28.7505 7.30517
C 26.5526 -0.360981 5.94343
C -17.5283 7.63304 4.32904
C 26.6109 -0.621445 1.51221
C -24.4408 4.12387 2.84938
C -25.1647 -4.97775 0.00456235
C -27.6161 1.41471 9.10401
C -24.9694 -2.30302 7.88679
C 26.4262 6.19506 1.58922
C -21.7673 2.48681 -1.38388
C 25.4352 3.84152 -3.96585
C 26.4347 5.74743 3.77233
C -24.8592 5.17492 -7.61148
C -20.2055 4.3833 -4.59835
C -21.168 7.23217 8.63225
C 26.4422 5.31864 -2.21675
C -23.1152 -1.39552 -7.43133
C -20.0442 1.4888 -4.75964
C -21.6491 0.411629 -6.5478
C -24.904 0.439237 -9.12873
C 29.3975 0.55568 1.72721
H 22.1952 26.1916 4.93321
C -22.7422 -2.7812 7.31765
C -23.3544 10.0626 -0.943143
C -24.2499 2.9987 -8.49702
C -22.2159 9.75786 1.12284
C -19.0648 3.08828 7.43059
C -19.5019 4.0781 8.24513
C -22.2305 2.69288 -7.79763
C 29.9818 2.30821 -8.43853
C -20.2751 -0.375446 -3.2124
C 29.0072 -3.52543 -6.06049
C 28.7572 -1.57495 -7.31684
C -19.0641 1.44557 -2.61057
C -21.7752 -0.105022 -5.28964
C 25.7758 -2.42364 -5.53389
C -25.4518 -0.604835 -8.06215
C 25.5213 -1.4039 -2.6736
C 24.7902 -0.386632 -3.28586
C 24.8059 3.20837 -1.98057
H 3.98102 -26.0526 13.7464
C -26.6824 -1.03569 -7.66512
C 27.2411 0.776995 -6.88485
H 7.07294 5.93696 -7.12157
C 26.1093 0.335533 0.679588
C -21.3502 -3.23088 2.31361
C -26.5557 8.01075 -5.12761
C 26.5038 4.85988 -3.54616
C 29.5351 6.77383 -4.64779
H 0.380635 -23.7135 -21.6351
C 27.4402 -2.81875 -1.36926
C -22.636 9.61807 2.37976
C 27.7557 -3.75458 -6.0772
C -20.6606 1.03618 7.97198
C -22.9632 1.35568 9.06835
C 28.2558 -3.74142 -0.876089
C 26.6567 -1.86788 -0.876559
C 24.3699 0.990342 -1.11898
C 29.1832 -4.06682 -1.82058
C -24.6247 0.115201 -1.29508
C -22.7479 -3.32684 4.9764
C -27.6399 0.160556 8.56631
C 28.3138 2.583 8.02255
H 24.5016 3.7076 15.7489
C -25.7125 -4.04195 4.72822
C -27.2364 -3.33011 6.18736
C 28.3314 -3.80663 0.36872
C 26.2915 1.95764 7.09733
C -23.555 3.93311 -2.78473
C 24.5815 1.62476 -3.60339
C 26.5278 3.40014 6.86903
C -21.2762 -2.16966 -4.2586
C -25.5263 2.76333 -9.32013
C 26.4388 5.73776 0.393008
C 28.7281 2.22409 -7.97682
C -24.4844 -4.30254 -2.46686
C -23.3247 2.08292 -8.21523
C -21.3558 1.92102 -6.91735
H -7.07204 30.8718 -23.0367
C -22.5411 9.70431 -2.02722
C -19.684 7.83719 -1.04732
C 29.5603 4.76837 -8.10009
C -22.8092 5.79915 -6.31843
C 25.0151 3.90243 0.968217
C -25.7781 8.53957 5.32293
C 25.3552 4.10789 2.17104
C 29.367 5.13717 7.47179
H 21.4623 26.4521 4.48691
C -25.353 -0.313679 9.31256
C -23.8906 1.92137 9.89801
C -24.8076 -2.84609 6.65188
C -22.7237 -3.966 2.68439
H 24.4204 3.41168 16.5546
C -20.3258 5.81517 -4.0921
C -18.1534 6.0861 -1.53918
