LAMMPS data file via write_data, version 3 Mar 2020, timestep = 80000000

441 atoms
4 atom types

-2.7789400000000001e+01 3.0235499999999998e+01 xlo xhi
-2.9245400000000000e+01 3.3273800000000001e+01 ylo yhi
-2.7946800000000000e+01 3.0781099999999999e+01 zlo zhi

Masses

1 15.9994
2 15.9994
3 12.0107
4 1.00794

Atoms # full

396 1 4 6.1941028440637980e-03 3.8063482139444915e-01 -2.3713532116659525e+01 -2.1635133251297194e+01 42 -81 -336
83 1 4 6.1941028440593016e-03 -1.7125337089372597e-01 -2.3671942331248125e+01 -2.1964149590198563e+01 121 -21 -331
196 1 4 6.3525726163800866e-03 -4.8218522563240906e+00 -2.8916221098815051e+00 -2.3377779623397270e+01 -112 -73 96
279 1 4 6.3525726163806973e-03 -4.1250880037073996e+00 -3.3102282531731215e+00 -2.3390470901676881e+01 89 -11 -115
87 1 3 -2.2793341308125978e-04 -2.6091786147991449e+01 -2.9723698940718797e+00 -6.5191888873761554e+00 0 -2 -1
175 1 3 -6.1935322116214719e-05 -2.2204372118420217e+01 -3.0580541613402832e+00 -3.8739816052857368e+00 0 -2 -1
86 1 3 -1.9831593131806186e-04 -2.4632837052176605e+01 -2.7231208216292422e+00 -6.8004170905060084e+00 0 -2 -1
241 1 3 -2.7712908965610988e-04 -2.6585840736099790e+01 -4.8216363948074390e+00 -1.9818634814031335e+00 0 -2 -1
108 1 1 -2.9239664177469621e-04 -2.5316285853901405e+01 -4.7773295120196284e+00 -1.3670553297804728e+00 0 -2 -1
214 1 3 1.4823289715969711e-04 -2.7359182270109113e+01 -4.0527768064799625e+00 1.8553298348001904e-01 0 -2 -1
315 1 3 -1.2082023000110562e-04 -2.3435807583960830e+01 -3.4455928363901203e+00 -4.5581528371394562e+00 0 -2 -1
77 1 3 -2.4841340853657551e-04 -2.1082236328069950e+01 -3.5292953407446794e+00 -1.5058159705709762e+00 0 -2 -1
305 1 3 -4.8941811411593039e-04 -2.3551274067986533e+01 -3.1447477861610507e+00 -6.0088337984061608e+00 0 -2 -1
176 1 3 -2.0796130818764857e-04 -2.6557318906054707e+01 -3.6041392813552511e+00 -5.4967672674972388e+00 0 -2 -1
226 1 3 -6.4323609977791178e-05 -2.1140085503989756e+01 -3.2983101048792536e+00 8.7022411073242656e-01 0 -2 -1
330 1 3 -6.8389601830831648e-04 -2.1460848579358988e+01 -4.0829004330405052e+00 -1.6221596493613627e-01 0 -2 -1
37 1 1 -1.9154651309155959e-04 -2.3766647892317760e+01 -4.7913285596235395e+00 6.3242747053517412e-01 0 -2 -1
223 1 3 -5.3180589296547218e-05 -2.6239560710090061e+01 -4.5735734766601910e+00 7.9663016168124134e-01 0 -2 -1
137 1 3 -4.8851004313297391e-04 -2.4530013813864322e+01 -4.0613661178429927e+00 -3.8330528647294826e+00 0 -2 -1
311 1 3 1.2149504419671324e-04 -2.2990597287132871e+01 -4.3095562337631286e+00 -5.1415375930552809e-01 0 -15 25
352 1 3 -4.1852178049713723e-04 -2.5164686548072023e+01 -4.9777535296560647e+00 4.5623479911510627e-03 0 -2 -1
422 1 3 6.4901996598057789e-05 -2.4484447241567164e+01 -4.3025439596457797e+00 -2.4668623800935716e+00 0 -2 -1
243 1 3 7.1738469449677926e-06 -2.5799009238675747e+01 -3.9256891450598843e+00 -4.2353660315930544e+00 0 -2 -1
98 1 3 -4.6395541967924475e-04 -2.2019882583343872e+01 -3.8994559122830434e+00 -2.6236430058939777e+00 0 -2 -1
343 1 3 -3.9956079553445795e-04 -2.6664538725802874e+01 -4.6012246930149283e+00 -3.4842367588712149e+00 0 -2 -1
30 1 1 -4.9335395512823538e-04 -2.3168225272979228e+01 -4.5090104719865458e+00 -1.8399097383035681e+00 0 -2 -1
210 1 3 -4.6619537985417847e-04 -2.7649510428732356e+01 -4.5970842391156044e+00 -1.1807914834590845e+00 0 -2 -1
411 1 3 -1.0926374477893477e-04 -2.5712464584184001e+01 -4.0419515706154225e+00 4.7282154176759565e+00 0 -2 -1
178 1 3 -4.1726988385821367e-04 -2.6989356271656270e+01 -4.5615747844438568e+00 4.4667377850448746e+00 64 92 -12
114 1 1 -5.5775202955915537e-04 -2.7321199167250853e+01 -4.8555644842092649e+00 3.1094890006847242e+00 0 -2 -1
437 1 3 -2.4400979207193918e-04 -2.4807591676406510e+01 -2.8460882658982420e+00 6.6518828987974734e+00 0 -2 -1
407 1 3 -4.0668689097810018e-04 -2.2747882280349888e+01 -3.3268429029302444e+00 4.9764018668467616e+00 3 -7 -15
412 1 3 -2.0929334910733954e-05 -2.7236427797621580e+01 -3.3301099993666341e+00 6.1873627701128449e+00 0 -2 -1
213 1 3 -2.4318621571231894e-04 -2.3312814598349640e+01 -3.9014589114222598e+00 3.9588672777465037e+00 0 -2 -1
297 1 3 -2.0400505917877662e-04 -2.4857287768166589e+01 -4.9465022739961109e+00 2.6766020029717734e+00 0 -2 -1
94 1 3 -1.8458220979245682e-04 -2.5914194942222142e+01 -3.3156112604448262e+00 5.8969256972532706e+00 0 -2 -1
90 1 3 7.5018884564645102e-05 -2.3622551218781730e+01 -2.8710761303908852e+00 6.1565111639248240e+00 -1 -28 30
320 1 3 -2.3491248720822894e-04 -2.4709844385330545e+01 -4.4414402030180753e+00 3.8060247016795135e+00 0 -2 -1
369 1 3 -4.4789637090766887e-04 -2.2742221325211585e+01 -2.7812036091249741e+00 7.3176512270434211e+00 0 -2 -1
438 1 3 -2.1719130916202480e-06 -2.2723727440944959e+01 -3.9659975095153128e+00 2.6843913850517209e+00 0 -2 -1
200 1 3 -7.0196293015618860e-04 -2.3489972124906782e+01 -4.9431114511626539e+00 2.0224948503843243e+00 0 -2 -1
216 1 3 -3.3839469377736769e-04 -2.6220372268949902e+01 -5.0254862506780711e+00 2.2540048285788759e+00 0 -2 -1
392 1 3 -5.1657652986183966e-04 -2.1350173462783935e+01 -3.2308813642459819e+00 2.3136053478473864e+00 0 -15 25
285 1 3 -2.5041970991592638e-04 -2.1600113688674313e+01 -2.4988185071086382e+00 5.1644762761596432e+00 0 -2 -1
65 1 3 -5.8655554079881100e-04 -2.7432870118730911e+01 -2.6114548816727505e+00 7.1974280621629374e+00 20 7 -47
310 1 3 -5.8299101597206193e-04 -2.7584765511273766e+01 -7.9446874862448183e-02 -8.2126977480555823e+00 0 -2 -1
363 1 3 -3.2752678327704898e-04 -2.3115213829876641e+01 -1.3955232983006498e+00 -7.4313297367656990e+00 0 -2 -1
388 1 3 -2.0705482050895768e-05 -2.6682367435095891e+01 -1.0356909458505075e+00 -7.6651221423162959e+00 0 -2 -1
306 1 3 -5.2454096785106707e-04 -2.6067939246313180e+01 1.3797887789574910e+00 -9.3267464999367711e+00 0 -2 -1
301 1 3 8.6738219574141254e-05 -2.7163668714759460e+01 1.2315568469177076e+00 -8.5076068948669903e+00 0 -2 -1
383 1 3 9.8335147881808971e-05 -2.5451846801651744e+01 -6.0483530423189680e-01 -8.0621503877698917e+00 0 -2 -1
287 1 3 -5.4038008975383633e-04 -2.4505982904780883e+01 -1.6815671181559078e+00 -7.8789803145179444e+00 0 -2 -1
375 1 3 -4.4637678632687000e-04 -2.2230469552264520e+01 2.6928825984328313e+00 -7.7976250890461980e+00 0 -2 -1
366 1 3 -4.8189753089858400e-04 -2.4904037022865833e+01 4.3923724444850820e-01 -9.1287262821573893e+00 0 -2 -1
340 1 3 -5.3578658674285906e-04 -2.3653053503969453e+01 6.1643877010975656e-01 -8.6963517343286174e+00 3 6 6
308 1 3 4.2002678747207062e-05 -2.2844059693388711e+01 2.6714259450876292e-02 -7.4090358991936887e+00 0 -2 -1
365 1 3 -4.4608110348220292e-04 -2.1649070801361027e+01 4.1162905891759849e-01 -6.5477963377157975e+00 0 -2 -1
419 1 3 -4.9133612344900990e-04 -2.5526348265829036e+01 2.7633288361796202e+00 -9.3201278076267897e+00 0 -2 -1
307 1 3 -2.1101339396727495e-04 -2.6346540425457533e+01 3.7900542002291737e+00 -9.0002647125594724e+00 0 -2 -1
423 1 3 5.9273121138246447e-05 -2.3324700250502747e+01 2.0829178860062698e+00 -8.2152331405254806e+00 0 -2 -1
371 1 3 -1.5522481936960930e-04 -2.4249873763344254e+01 2.9987006026590368e+00 -8.4970177169104542e+00 0 -2 -1
81 1 3 -4.1835722178339531e-05 -2.3933570661734969e+01 4.1677445304219818e+00 -7.7662926414024467e+00 0 -2 -1
95 1 3 -3.1616275469373983e-04 -2.6147513177331096e+01 5.0595963516013516e+00 -8.2642103882254947e+00 0 -2 -1
424 1 3 -4.3802445653944727e-04 -2.1355834154884306e+01 1.9210211183141994e+00 -6.9173509033919451e+00 0 -2 -1
273 1 3 -3.2328166390677149e-04 -2.7326955321157076e+01 5.6652092675039460e+00 -7.8171609604070156e+00 0 -2 -1
359 1 3 -1.6939155289055416e-04 -2.4859153042746374e+01 5.1749249026525179e+00 -7.6114805244482335e+00 0 -2 -1
304 1 3 -4.4442935086090596e-04 -2.2534805656983995e+01 4.0369370318495985e+00 -7.5894480205055563e+00 0 -2 -1
79 1 3 -2.5290444265661099e-04 -2.1833610594223380e+01 4.7263227392723284e+00 -6.5108651321732491e+00 0 -2 -1
429 1 3 -2.8000365859740667e-04 -2.2809150102379142e+01 5.7991469497360804e+00 -6.3184345093994194e+00 0 -2 -1
302 1 3 -4.8613146881251734e-04 -2.7708858294144186e+01 3.7044299178139717e+00 -8.8481749604860482e+00 0 -2 -1
344 1 3 -1.7039789841147637e-04 -2.4102246498454623e+01 6.0696013102538036e+00 -6.7831820024168668e+00 0 -2 -1
256 1 3 -3.9776592228494417e-04 -2.2540964131956351e+01 -2.1214053168593470e+00 -6.4415969608477051e+00 0 -2 -1
255 1 3 -2.0031021117265487e-05 -2.6701037240399639e+01 6.1714119805362042e+00 7.8295217042933241e-01 0 -2 -1
163 1 1 -2.4893616867650847e-04 -1.8055110472701742e+01 1.4389451742246189e+00 -4.9348444840042688e-01 0 -2 -1
331 1 3 -5.2897045260461711e-05 -2.0791009734650196e+01 2.4564117071840603e+00 -5.8042102676764387e+00 -44 -5 -32
36 1 1 -2.3514934780261010e-04 -2.2890695595266294e+01 4.4924702575390629e+00 5.7341826815892105e-01 0 -2 -1
441 1 3 -3.4891377416789229e-05 -1.8153449428236662e+01 6.0861007838205294e+00 -1.5391799999779761e+00 0 -2 -1
9 1 2 -2.6028941257939201e-05 -2.5915388938075463e+01 6.2466152695896326e+00 -5.6042670061377675e-01 0 -2 -1
181 1 3 -3.2091855924814422e-04 -2.2810245723453395e+01 3.0172557875947450e+00 1.0163151492565812e+00 0 -2 -1
381 1 3 7.2750064112590135e-05 -2.1775154959065819e+01 -1.0502190723280508e-01 -5.2896362547412599e+00 0 -2 -1
271 1 3 -6.7265476675892714e-05 -2.4976482375597115e+01 5.6023093973360671e+00 -2.3739046542098063e+00 0 -2 -1
67 1 3 -2.1632541403263095e-04 -2.1847273004267940e+01 -1.6105397869017375e+00 -5.4095159942061217e+00 0 -2 -1
70 1 1 -2.5432925389145752e-04 -2.3915845628938651e+01 5.5271565791839583e+00 8.7450900703594259e-01 0 -2 -1
295 1 3 -3.4264942960462313e-04 -2.0861996415508973e+01 3.9933310668195139e+00 -5.7433914068398746e+00 0 -2 -1
155 1 3 -1.9695372497128411e-04 -2.6307153178016236e+01 2.7981895225100872e-01 5.6984737184676659e-01 0 -2 -1
201 1 3 -2.2692193678043940e-04 -2.7373154696090744e+01 9.1493393750977459e-01 -2.3132112817014000e-01 0 -2 -1
113 1 3 -1.0777732178253452e-04 -2.3389610602484915e+01 2.5476082797749044e+00 -2.8526245627849165e+00 0 -2 -1
406 1 3 -2.1758835744880439e-04 -2.4624704050972589e+01 1.1520129903619536e-01 -1.2950830355207164e+00 0 -2 -1
205 1 3 -2.6560051727269468e-04 -2.4757177601919388e+01 2.2236508362513678e+00 -2.8687309862393300e+00 0 -2 -1
58 1 3 -3.5796314134196872e-04 -2.7018550681731796e+01 1.3114186436417188e+00 -1.5962337785213465e+00 0 -2 -1
19 1 3 -2.4185506051596986e-04 -2.5698849842055999e+01 3.2612762135543623e+00 -2.7926104445379027e+00 0 -2 -1
159 1 3 -3.2091914802297866e-04 -2.5434992296228543e+01 1.2411562904636013e+00 -1.9809159709655089e+00 0 -2 -1
111 1 3 -7.7115671379029624e-05 -2.3145395886524412e+01 5.1009463348658990e-01 -1.2664587922871224e+00 0 -2 -1
120 1 3 -1.2588166146253535e-04 -2.5048268613818259e+01 -1.9459401889599173e-01 1.5320966441242739e-02 0 -2 -1
356 1 3 -8.4002109021662913e-05 -2.1767260162246842e+01 2.4868138269025710e+00 -1.3838771648379500e+00 0 -2 -1
15 1 1 -1.0525752517933674e-04 -2.2615608362846196e+01 1.6307716075117673e+00 -2.0222315020025983e+00 0 -2 -1
123 1 3 -2.2925068601773596e-04 -2.7054733583941839e+01 3.4443873599519694e+00 -2.4175582327316016e+00 0 -2 -1
291 1 3 -6.3101643764871575e-05 -2.1591613783454619e+01 3.9667071900146889e+00 -1.4558849860257550e+00 0 -2 -1
1 1 1 -1.3257167412847153e-04 -2.2866127720947759e+01 7.0651663864394487e-01 1.8994829153710466e-01 0 -2 -1
57 1 1 -1.4640043557909502e-04 -2.2301766397316541e+01 2.0802835119797463e+00 8.0621543045868133e-02 0 -2 -1
40 1 3 -1.0844662235821173e-04 -2.4807611850739359e+01 4.3994775344930588e+00 -2.7997626663424993e+00 0 -2 -1
105 1 3 -7.7323285878829959e-05 -2.6223623112594673e+01 5.6896445145441010e+00 -1.7789180757795597e+00 0 -2 -1
415 1 3 -1.2021286278459872e-04 -2.3555025288604519e+01 3.9331135558309538e+00 -2.7847339179080235e+00 0 -2 -1
220 1 3 -1.1564159092329260e-04 -2.7391644212196152e+01 4.6431886714956425e+00 -2.0382804191365018e+00 0 -2 -1
89 1 3 -3.5087339262079419e-05 -2.2408959979741223e+01 4.6972575187457855e+00 -2.2997242642595599e+00 0 -2 -1
101 1 3 -2.0811319719168941e-04 -2.1624789511467899e+01 4.6575853596027192e+00 -6.6010966674387189e-02 0 -2 -1
138 1 1 -1.4161299442799757e-04 -2.4000562180036120e+01 1.1876939050300468e-01 1.1017588051455480e+00 0 -2 -1
61 1 3 -4.9087505701219357e-05 -2.2795658252215166e+01 5.6701187696411166e+00 -1.5881055850118524e+00 0 -2 -1
418 1 3 -3.3493284025556957e-04 -2.1276189185780844e+01 -2.1696591712762605e+00 -4.2586000949209115e+00 2 -3 5
257 1 3 -1.2708315554930006e-05 -2.1894275760652455e+01 6.1740802677723856e+00 -5.1114056912445438e-01 0 -2 -1
360 1 3 -3.8105247915353607e-04 -2.0205505336388249e+01 4.3832958395130710e+00 -4.5983531229000203e+00 0 -2 -1
23 1 3 -5.9793161103642578e-04 -2.0250444336519681e+01 -1.7806164384298246e+00 -3.1604372979306201e+00 0 -2 -1
293 1 3 4.3614542870835070e-05 -2.3997419056956538e+01 6.3257808122707049e+00 -1.7233211076006705e+00 0 -2 -1
177 1 3 -4.4590399991832619e-04 -1.9766232674094567e+01 -1.6783840488765560e+00 -6.3904743485075977e-01 0 -2 -1
100 1 3 -1.3929091692650719e-04 -2.0302395938851660e+01 -2.2863637548473612e+00 -1.7079564734785913e+00 0 -2 -1
364 1 3 -5.9517237079451113e-04 -2.0044163766828497e+01 1.4888020303532843e+00 -4.7596369593377164e+00 0 -2 -1
171 1 3 -5.6431621818979136e-05 -2.0142424367603130e+01 -1.9785051510944689e+00 6.6271906851150242e-01 0 -2 -1
380 1 3 -4.4336492128824179e-04 -1.9064100024160176e+01 1.4455712708025876e+00 -2.6105687062111738e+00 0 -2 -1
104 1 1 1.8099755182707580e-04 -1.9630211727198471e+01 3.6315643846097840e+00 -3.6311510251878856e+00 0 -2 -1
63 1 1 -3.2805140440853725e-04 -1.6673822526495705e+01 5.9997005724801529e+00 1.1957357436480073e-01 0 -2 -1
85 1 3 -4.2040889447875901e-04 -2.7023924410630052e+01 -2.3760019029315345e+00 -7.2933872470987069e+00 0 -2 -1
440 1 3 -2.9412933077458325e-05 -2.0325829066841894e+01 5.8151652128081963e+00 -4.0920989799207881e+00 0 -2 -1
146 1 1 -2.1575013959572106e-04 -1.9500796824007480e+01 2.2265215912750600e+00 -3.7520258006314289e+00 0 -2 -1
21 1 3 1.5617231222178271e-04 -1.8189593030769117e+01 3.4710709050676511e+00 -1.6863940877884680e+00 0 -2 -1
282 1 3 2.5770171723948692e-05 -1.9651403359032351e+01 4.4035160537852219e-01 -1.9691662111526504e+00 0 -2 -1
74 1 1 -1.0960785259884337e-04 -1.7024205510499637e+01 3.0805389505450784e+00 2.9894808532700523e-01 0 -2 -1
129 1 1 1.1123968752743511e-04 -1.8834526720907768e+01 5.4575797061223605e+00 -2.5940825918397969e+00 0 -2 -1
24 1 3 4.4817349159764416e-05 -2.1049315798471060e+01 4.9839664976301951e-01 -4.2244674663193376e+00 0 -2 -1
321 1 3 -1.2285691144127420e-04 -1.8543956688237476e+01 2.0943305403426962e+00 -1.5816407673686801e+00 20 18 -4
64 1 3 -1.1105765995797143e-04 -1.9274036120873546e+01 -2.7287323866487079e-01 -7.5417512336064285e-01 0 -2 -1
169 1 3 -3.7098068664273565e-04 -1.8368869002848051e+01 1.7635616493936060e-01 1.5243592277824281e-01 0 -2 -1
62 1 3 -5.5144264569939594e-04 -1.6919882545788575e+01 5.3839425697506655e+00 -1.0290698750551794e+00 0 -2 -1
97 1 1 -5.9392379377753990e-04 -1.6962915689353565e+01 3.8705453596002246e+00 -9.1341693749997488e-01 0 -2 -1
377 1 3 -1.2401578779032418e-04 -2.0275118533794593e+01 -3.7544643202602918e-01 -3.2123977582354142e+00 -34 51 6
152 1 1 -2.6481863939007907e-04 -1.7392584416304128e+01 1.9030734622335417e+00 5.7932361708695235e-01 0 -2 -1
189 1 3 -8.0919741518103994e-04 -1.8487639726285369e+01 4.2012290794086278e+00 -2.9883922421020470e+00 0 -2 -1
56 1 1 -7.9354539359137444e-05 -2.4610497146740691e+01 6.2173433254104884e+00 -4.1471860799995347e-01 0 -2 -1
351 1 3 -4.3590669316864034e-04 -2.4440805442534824e+01 4.1238681122425920e+00 2.8493832005553901e+00 0 -2 -1
334 1 3 -3.0275676921934225e-04 -2.3842960425040371e+01 2.9990406158619662e+00 2.1568191114018056e+00 9 8 2
53 1 3 -3.0910363956540565e-04 -2.5588957822388281e+01 2.4186730268435501e+00 3.4509315158958800e+00 0 -2 -1
25 1 3 -3.3925441856307026e-04 -2.4415718163018020e+01 1.9063239037479924e+00 2.6659264085142982e+00 0 -2 -1
292 1 3 -2.1135031039841087e-04 -2.6972125812752239e+01 1.9572751899148233e+00 3.2873563821806098e+00 0 -2 -1
303 1 3 -1.1984017478268091e-04 -2.7038195003153419e+01 3.9753223154951347e+00 3.4439349561552133e+00 0 -2 -1
10 1 1 -6.6969075578694401e-05 -2.7157077418573795e+01 5.3073155332225159e+00 2.8773441996962252e+00 0 -2 -1
32 1 1 -3.2072228815988035e-04 -2.5601637381623043e+01 3.8393786106168610e+00 3.6479710680381796e+00 0 -2 -1
118 1 3 -1.1294613504777944e-04 -2.6151042978050508e+01 5.7781197596492202e+00 2.0470486062082514e+00 0 -2 -1
268 1 3 -8.1806676886139740e-04 -2.2690960322893449e+01 -2.0769412387059334e+00 8.6624653609215692e+00 0 -2 -1
353 1 3 -1.9128797927974589e-04 -2.7616139343948255e+01 1.4147104623347393e+00 9.1040128387024790e+00 0 -2 -1
130 1 3 -1.4666600774500098e-04 -2.6321884192544825e+01 -1.8280157974228028e+00 7.9420668663670044e+00 0 -2 -1
174 1 3 -8.7890768903598100e-05 -1.7284477543819225e+01 1.4650705793421299e+00 1.8357439668113777e+00 0 -2 -1
262 1 3 -3.5344775262743933e-04 -2.6551059852508953e+01 -7.5421460351630565e-01 8.7101895942822782e+00 0 -2 -1
207 1 3 -1.6449953863751504e-04 -2.7445404539309052e+01 1.0526434277741739e+00 2.4973787100536571e+00 0 2 -4
4 1 1 -5.0461579632103681e-04 -2.1139797398053339e+01 -3.1186767711344010e-01 7.8445096258814990e+00 0 -2 -1
264 1 3 -1.5619832151440860e-04 -2.0827028522559456e+01 -9.4673499036161834e-01 6.6911084902461857e+00 0 -2 -1
400 1 3 -2.7418426091516818e-04 -2.0660608735365454e+01 1.0361804777809211e+00 7.9719760294681086e+00 0 -2 -1
41 1 1 -1.5457084779631897e-04 -2.4761664806950982e+01 5.1486529858816450e+00 1.9209967651187159e+00 0 -2 -1
103 1 3 -2.3156264818528435e-04 -2.4761458480467148e+01 5.3820980579397248e-01 2.1433651012598052e+00 0 -2 -1
107 1 3 -1.5584600099980209e-04 -2.6213323512936380e+01 5.6628725229908705e-01 1.9937033361663667e+00 0 -2 -1
267 1 3 4.2870126098926153e-04 -2.2536202700061676e+01 -8.4979899520316315e-01 8.3062762623783133e+00 0 -2 -1
110 1 1 -6.6140361174530510e-05 -2.7041919595010398e+01 5.7600271257146405e+00 9.1561476787018563e+00 0 -2 -1
234 1 3 -1.6503972299664743e-04 -2.4676468454076723e+01 6.4515504497728822e+00 9.7602327200580206e+00 0 -2 -1
235 1 3 -4.2666379852032005e-04 -2.3180196843706629e+01 -1.2540291584489030e-01 9.3017991441960710e+00 0 -2 -1
141 1 3 -3.6875776335337784e-04 -2.1709328453937790e+01 1.7494339412916691e+00 8.7143700704466180e+00 8 -7 -5
327 1 3 3.3667675545931614e-05 -1.8998773940763606e+01 6.1883926466830230e+00 8.7252108257642842e+00 0 -2 -1
140 1 1 -4.3652825169984699e-04 -1.7954544435185586e+01 3.3669561199303122e-01 1.6218864642964537e+00 0 -2 -1
26 1 1 -4.7087267947684697e-04 -1.6376692628558686e+01 6.0745275709102593e+00 2.8049297527784289e+00 0 -2 -1
298 1 3 -1.8903795969686318e-04 -2.0820128190939137e+01 -1.7515556688757625e+00 4.1931735388077360e+00 0 -2 -1
408 1 3 -1.7713142016180863e-04 -2.7639925090160002e+01 1.6055580311008497e-01 8.5663139275808202e+00 0 -2 -1
299 1 3 -4.4266532625986815e-04 -1.8441811516712484e+01 4.9434541196640529e+00 8.3069209595967752e+00 23 42 5
374 1 3 -5.6212144618959965e-05 -1.9501861521433181e+01 4.0781041208724034e+00 8.2451307199046351e+00 0 -2 -1
76 1 1 -3.4756547386555897e-04 -1.6342982262965354e+01 5.2507257720293445e+00 1.5156527257122321e+00 0 -2 -1
224 1 3 -1.0872852435885733e-04 -2.0623700549265362e+01 -2.0252834155854234e+00 2.6534653578125131e+00 0 -2 -1
173 1 3 -2.1323540512635172e-04 -1.9872682269281672e+01 -8.1382763568378161e-02 5.9196075414164815e+00 0 -2 -1
60 1 1 -1.7697674073019476e-04 -1.6680478888625380e+01 3.8971558969491862e+00 1.6283069915195800e+00 0 -2 -1
373 1 3 -2.9255124955591266e-04 -1.9064766539827318e+01 3.0882831258498187e+00 7.4305890518563826e+00 0 -2 -1
251 1 3 -2.4219520558388385e-04 -1.9715997400905913e+01 1.8649950251954357e+00 7.3211902848795578e+00 0 -2 -1
217 1 3 -4.2290031485348739e-04 -1.7426061648425865e+01 4.8721367676033918e+00 7.1856814960727320e+00 0 -2 -1
59 1 1 -2.9843878342251939e-04 -1.6920131657617535e+01 3.7900327143034067e+00 4.3218868913893340e+00 0 -2 -1
191 1 3 -6.2946336700454852e-04 -1.6976378392374620e+01 1.6363930177452777e+00 3.1215304796186349e+00 0 -2 -1
55 1 1 -1.8834339046157680e-04 -1.7941220436878943e+01 3.7013304257290418e+00 6.5581744062920482e+00 0 -2 -1
218 1 3 -3.3467249976042862e-04 -1.7988468863544124e+01 1.6874203169197968e+00 5.1354875543162644e+00 0 -2 -1
28 1 2 -9.1497824269015302e-05 -1.7748569599694989e+01 3.1938569188946895e+00 5.2812298628219105e+00 0 -2 -1
294 1 3 -2.1969266899589390e-04 -1.7769967103760685e+01 9.0818538291037487e-01 4.0330252950462722e+00 0 -2 -1
286 1 3 -4.1352072147247954e-04 -1.8914100634211579e+01 1.1285133361327526e+00 6.1192050441598616e+00 0 -2 -1
225 1 3 -2.7955454062356805e-04 -1.9881332493985948e+01 -8.5468890405007791e-01 4.6475264184880221e+00 0 -2 -1
202 1 3 -4.4850222465769862e-04 -1.8777002264730807e+01 -1.7480225338467931e-01 3.7523676634733962e+00 0 -2 -1
66 1 1 -1.5705397953563044e-04 -1.6764746736611752e+01 3.2569875696166188e+00 3.0351696915514621e+00 0 -2 -1
222 1 3 1.3010122490580978e-04 -1.9018390321851435e+01 -1.5674391976570487e-01 2.4455253130841377e+00 0 -2 -1
219 1 3 -3.5832013086586900e-04 -1.6541457329748397e+01 5.3437443589657194e+00 4.0625034637800228e+00 0 -2 -1
172 1 3 -4.2677632107360891e-04 -1.9658596400551748e+01 -1.2898658345325971e+00 1.8456521909727033e+00 0 -2 -1
192 1 3 -2.9728443631216878e-04 -1.6968378654737357e+01 6.1808615746773414e+00 6.5123593460985738e+00 23 42 5
436 1 3 -6.8565282275204198e-04 -2.3890605606332020e+01 1.9213673533550899e+00 9.8980136159047714e+00 0 -2 -1
128 1 3 -3.3914795440843915e-04 -2.6353753424373444e+01 1.9900342103164885e+00 9.6281254425894858e+00 0 -2 -1
33 1 3 -3.7788209966052588e-04 -2.3975570198366803e+01 -2.0894888592570786e+00 8.9731520179211142e+00 0 -2 -1
333 1 3 -5.4156552122937296e-05 -2.0721648608620161e+01 4.0457578171586563e+00 8.8580481069792132e+00 0 -2 -1
260 1 3 -3.6088111418332292e-04 -2.5659492466110315e+01 5.6378227730281747e+00 9.9159023011915082e+00 0 -2 -1
435 1 3 -1.7695832811384649e-04 -2.5352989635669061e+01 -3.1367851615170345e-01 9.3125648239754391e+00 0 -2 -1
288 1 3 -4.6154121941822945e-04 -2.4209425410762780e+01 -9.0072528837664723e-01 9.5761169914817525e+00 0 -2 -1
278 1 3 -5.6305330267746034e-04 -2.0682076884875524e+01 5.2015467331839540e+00 9.7770428984634066e+00 0 -2 -1
131 1 3 -1.4440493767684665e-04 -2.2872585565644606e+01 3.9804429619743664e+00 9.6392418565629043e+00 -12 -19 6
261 1 3 -4.9958093782442869e-04 -2.5306782788985856e+01 4.2755518601490987e+00 1.0176496474337839e+01 0 -2 -1
157 1 3 -3.5739958981311631e-04 -2.2068476854307157e+01 5.2640451030807736e+00 1.0066283695204769e+01 0 -2 -1
401 1 3 1.1552695566549240e-04 -2.2963235864437209e+01 1.3556826689625960e+00 9.0683527997316880e+00 0 -2 -1
335 1 3 -1.9623643627934839e-04 -2.1757893661148579e+01 3.0959071088342243e+00 8.9078834849938335e+00 0 -2 -1
270 1 3 2.7004365097135861e-06 -2.4047909729478452e+01 3.3776012556876571e+00 9.7343478750008465e+00 0 -2 -1
115 1 3 -7.2638593853806277e-05 -2.6516641961792203e+01 3.5759485192715403e+00 9.7990309422987885e+00 0 -2 -1
247 1 3 -7.9873454579824574e-05 -2.5159541774560047e+01 1.0924123335626623e+00 9.5229268568250909e+00 0 -2 -1
354 1 3 -1.0621407648244742e-04 -2.4969395008925016e+01 -2.3030217770430350e+00 7.8867941386498490e+00 3 -7 -15
269 1 3 -5.0094468013687360e-04 -2.3097421882604042e+01 6.2325167279501779e+00 9.9783596896782072e+00 0 -2 -1
248 1 3 -2.0593985011794092e-05 -1.7018774368259525e+01 6.3839618280396726e+00 5.0494285253569391e+00 0 -2 -1
328 1 3 -3.2263236723677896e-04 -2.1590327255889616e+01 -2.1376973486576381e+00 6.5562984159257702e+00 0 -2 -1
194 1 3 -2.8304355625917432e-04 -2.4721403640388164e+01 7.3056669802894660e+00 -6.3382758030499655e+00 0 -2 -1
325 1 3 -1.6981454934812679e-04 -2.6170811585718116e+01 7.2894821501940648e+00 -6.3126054396196345e+00 0 -2 -1
276 1 3 -6.2978321073595134e-04 -2.6895516651689665e+01 9.4536794719759882e+00 -1.0960793713322237e+00 0 -2 -1
183 1 3 -4.3567478664304632e-04 -2.3253545519931286e+01 1.0240434104246768e+01 4.8005651673694660e-01 30 9 38
106 1 3 -2.2336938062682971e-04 -2.3173032896843505e+01 9.3967858288481398e+00 -3.2442674667885134e+00 67 -27 -51
117 1 3 1.8127460139783294e-04 -2.3280120189487565e+01 7.8100348381192255e+00 -4.9076614004456323e+00 0 -2 -1
84 1 3 -6.8202263915055628e-04 -2.1237209567974578e+01 9.4001641528706408e+00 -1.8264809510855120e+00 0 -2 -1
211 1 3 -5.6767109970374922e-05 -2.2553831167799853e+01 6.6314738240360764e+00 -5.1948303210066049e+00 0 -2 -1
204 1 3 -3.7248853825555539e-04 -2.1184301589590543e+01 6.6690579286692371e+00 -4.6425959128499334e+00 0 -2 -1
186 1 3 -3.2841320947210595e-04 -2.1352567024826541e+01 7.9804927349639643e+00 -4.0232476355795894e+00 0 -2 -1
170 1 3 -1.3231236945817487e-04 -2.0899100632487055e+01 8.4610029778478353e+00 -2.8263800371929784e+00 0 -2 -1
319 1 3 -4.3866543523295165e-04 -2.2520910470792199e+01 8.6281982686510226e+00 -4.1886932597766826e+00 0 -2 -1
426 1 3 -9.4500248571041320e-05 -2.2541060591602992e+01 9.7043129628470961e+00 -2.0272177537203855e+00 -12 73 52
370 1 3 -4.3503681536686406e-04 -2.3354377096063565e+01 1.0062593961308243e+01 -9.4314347001568821e-01 0 -2 -1
244 1 3 -6.9907691719886533e-04 -2.4344552734858397e+01 8.4418293836787726e+00 -5.4669475700616585e+00 0 -2 -1
119 1 3 6.9427665454138351e-05 -2.4573539368438674e+01 9.6402627814584125e+00 -1.3795496619404699e+00 0 -2 -1
199 1 3 -3.0547343062918564e-04 -2.4610448231566956e+01 9.6849393651450004e+00 -2.8242597935770872e+00 0 -2 -1
160 1 3 -6.0118959199305377e-04 -2.5683528447260926e+01 9.3974938783437150e+00 -3.4014194517950784e+00 0 -2 -1
91 1 3 -1.3222473412069502e-04 -2.5532279570721673e+01 8.7937702841436405e+00 -4.7116591002040691e+00 0 -2 -1
99 1 3 -2.0419294395680049e-04 -2.5649420490023594e+01 9.6292463110540911e+00 -5.3936527210114393e-01 0 -2 -1
280 1 3 -4.1798125364460141e-05 -2.1514685595190208e+01 7.2939247866474037e+00 3.3886638434575483e-01 0 -2 -1
69 1 1 2.0298620081579677e-04 -2.6547000033850100e+01 8.7702851215260722e+00 -2.6003751553594818e+00 0 -2 -1
393 1 3 -2.9003876496980913e-04 -2.6555694925078559e+01 8.0107545420019584e+00 -5.1276112106906337e+00 0 -2 -1
42 1 2 -2.3985151261985235e-05 -2.5694725689222381e+01 9.2729972128652935e+00 8.5495357111435411e-01 0 -2 -1
185 1 3 -2.3505850334765849e-04 -2.0911179021919764e+01 9.1474145939086746e+00 7.2840328188677739e-01 0 -2 -1
372 1 3 -1.9148349767275988e-04 -2.2215866582406804e+01 9.7578577497441525e+00 1.1228406807600675e+00 41 51 -11
427 1 3 -1.6135092648973323e-04 -1.9683973605097393e+01 7.8371891155426088e+00 -1.0473239074215137e+00 0 -2 -1
166 1 3 -1.6551259988644915e-04 -2.7562469741721326e+01 7.6472281604528645e+00 -4.2243839150916598e+00 -2 71 40
184 1 3 9.8331117016100048e-05 -2.0719417484468419e+01 8.5552947795694863e+00 -5.6027271632324305e-01 0 -2 -1
29 1 1 -3.8492318326311531e-04 -1.8424516584746627e+01 7.2884913077304114e+00 -8.2751288203521267e-01 0 -2 -1
151 1 3 -4.9883648302490383e-05 -2.0029438202774934e+01 7.6522615054726950e+00 -2.3760499859293795e+00 -4 -4 -14
336 1 3 -1.7390523247037652e-05 -1.7451123796144319e+01 7.1597776095710355e+00 2.6992399670795236e-01 -41 38 34
47 1 1 -4.4110593734228432e-04 -2.7343927007421424e+01 6.6830826733177320e+00 -6.7464860109368043e+00 0 -2 -1
167 1 3 -4.5900133887597644e-04 -2.4588579194385893e+01 9.9411608268535758e+00 1.3616405053481326e+00 0 -2 -1
187 1 3 -6.1343989946757715e-04 -1.9467170128940200e+01 6.5788845212112070e+00 -3.1720021660821183e+00 0 -2 -1
54 1 1 -2.4860893313606927e-04 -2.7668491271685529e+01 8.1511701200601561e+00 -2.7667242413128283e+00 0 -2 -1
312 1 3 -5.4129124048613031e-04 -2.3935845082124370e+01 9.2693515839139309e+00 6.4341102989209400e+00 -2 29 -8
78 1 1 -4.6232354200541337e-04 -2.2213781174367583e+01 9.5911460783365037e+00 4.7365275591723082e+00 -52 -2 23
17 1 1 4.3939177284772583e-05 -2.1141517202675210e+01 8.7288403775500285e+00 5.3311478620807637e+00 0 -2 -1
75 1 3 -2.8888799101165624e-04 -2.1715858865321191e+01 9.4168062633505727e+00 3.4470646685676485e+00 0 -2 -1
398 1 3 -1.3908697088538258e-04 -2.2636023920429949e+01 9.6180666076182977e+00 2.3797636276950960e+00 0 -2 -1
13 1 1 7.4249662531866364e-05 -2.2959603279331063e+01 8.4373470006992424e+00 7.2326444913720609e+00 0 -2 -1
227 1 3 -4.9725935157918927e-04 -2.1454153218083853e+01 8.8242697294052181e+00 6.7336086397187813e+00 0 -2 -1
147 1 3 -2.6039442833908355e-04 -2.3509147714359610e+01 9.6275639431238087e+00 5.1841762702384235e+00 0 -2 -1
275 1 3 -3.6199376494655544e-04 -2.4309331374562671e+01 9.7048016996045092e+00 3.7377632955036555e+00 0 -2 -1
274 1 3 -1.5293098035589099e-04 -2.3865284949048426e+01 9.7863117141252971e+00 2.5869734856321940e+00 0 -2 -1
35 1 1 -2.7555834450410099e-04 -2.5278592394008694e+01 8.5829294117004089e+00 6.6486368045290076e+00 0 -2 -1
249 1 3 -2.4592024747347591e-04 -2.0635070989744140e+01 8.2147313432859743e+00 7.7157513808046341e+00 0 -2 -1
150 1 3 -3.6127248682347318e-04 -2.5597025063835130e+01 9.1622216166024071e+00 3.8677250536065744e+00 -13 7 11
431 1 3 -1.6845384336408586e-04 -2.5778059716990921e+01 8.5395656517408813e+00 5.3229254586040327e+00 -2 8 -9
232 1 3 -5.4006200827795559e-04 -2.4876148412170402e+01 7.7420411938437512e+00 8.9238827782061669e+00 0 -2 -1
153 1 3 8.4796428142614941e-05 -2.6299208661564791e+01 8.2698951088065353e+00 2.9980939998261640e+00 0 -2 -1
44 1 3 -2.5017914566784899e-04 -2.5853965266260584e+01 7.7917846501123664e+00 7.8972776407813488e+00 0 -2 -1
49 1 1 -1.4344765481397528e-04 -2.6446899407197556e+01 8.6841651953062726e+00 1.6153284712104354e+00 0 -2 -1
139 1 3 -2.7900422028130645e-04 -2.6824698061172437e+01 6.8048865392279039e+00 8.1564486570825281e+00 0 -2 -1
229 1 3 -4.1438335340136107e-04 -2.3479619525483358e+01 8.0628798854571020e+00 8.3914769364774937e+00 0 -2 -1
112 1 3 -2.0016860027809169e-04 -2.7087716551583199e+01 7.9282324612128292e+00 5.0616076232494196e+00 0 -2 -1