273
Atoms. Timestep: 0
C 3.50748 -3.15074 5.11567
C 2.3462 -3.41407 5.54682
H 6.28961 -5.53471 -2.70828
C -25.6622 36.9253 31.176
C -25.7347 38.136 31.2086
C 3.23383 8.47442 -7.96837
C 2.78858 7.44592 -7.44474
C 5.82127 4.74285 -1.89737
C 4.74352 5.2184 -2.2134
C -4.35409 5.23231 0.937806
C -3.60888 5.64686 -0.0344639
C 5.21603 -5.2358 -2.70386
C 4.56931 -4.3107 -3.62109
C 1.18799 -3.70435 5.99824
C -0.0852052 -4.02071 6.46461
C 2.33253 6.35344 -6.92234
C 1.92472 5.25193 -6.37488
C 14.4693 -1.93604 2.79016
C 15.5978 -1.9565 2.83721
C 13.0008 -2.08205 2.71378
C 11.864 -2.14443 2.77893
C 6.49601 -8.96195 2.47518
C 6.66896 -7.73219 2.05057
H 16.6754 -2.01435 2.85268
C 1.44286 4.04763 -5.75184
C 0.111531 4.13056 -5.42208
C 10.4982 -2.24373 2.77982
C 9.35295 -2.18124 2.97145
C -5.60715 4.52088 3.02704
C -4.97705 4.8546 2.02504
C -5.21777 1.69061 -6.20024
C -6.07694 1.43342 -5.51007
C 19.961 -28.2952 5.09404
C 19.8289 -27.1068 4.88826
C 5.92725 -8.4544 6.18961
C 5.12013 -7.90964 5.4617
C 4.14038 0.937931 -4.77071
C 4.89202 0.159484 -4.60763
C 3.17437 2.12659 -5.08966
C 2.39067 2.86984 -5.2903
C 6.94472 -2.27474 3.67368
C 8.04457 -2.17827 3.29735
C -6.31803 4.0192 4.1523
C -5.59576 2.89549 4.50793
H -6.85249 4.7166 4.79063
C -8.32852 2.25579 -4.5515
C -7.24317 1.20887 -4.62298
C -5.69517 -3.03821 4.52089
C -4.45253 -3.70367 4.37142
C -2.13313 6.35429 -2.05395
C -2.85389 6.02993 -1.01424
C -3.80757 4.44981 -4.88392
C -4.61752 4.1216 -3.57064
C -3.41201 -4.35054 4.37462
C -2.30998 -4.8994 4.32911
C -2.43236 4.33711 -4.98329
C -1.18321 4.23451 -5.12495
C 37.997 -35.1666 36.6704
C 39.1548 -34.8577 36.698
C -1.74468 7.54035 -4.38559
C -1.34778 6.77899 -3.17961
C -2.54244 -1.04033 5.85423
C -3.40271 -0.0599363 5.64578
C -1.75692 -1.99339 6.14843
C -0.908298 -2.94434 6.26314
H -6.38997 -3.24494 5.35578
C -0.603156 5.88287 -9.23342
C -0.175544 6.95801 -9.61943
C -4.22206 0.904218 5.32207
C -5.02244 1.86372 4.96786
C 2.01924 -0.911961 -6.55513
C 2.68278 -1.84503 -5.90013
C -5.90262 1.68115 0.24997
C -5.89405 2.61877 -0.572941
C 6.32763 -1.31074 -3.00803
C 6.03745 -0.939356 -4.41574
C -5.19101 3.99804 -2.64652
C -5.98412 3.7801 -1.31274
C -3.89844 1.86706 -6.88316
C -2.93885 2.00514 -7.4173
C 4.6294 -2.8181 4.71748
C 5.73578 -2.48173 4.20659
C -5.92949 -0.195372 1.94897
C -5.9736 0.708135 1.08182
C -2.2003 10.7617 -9.9048
C -2.04267 11.3325 -10.8747
H -8.52482 3.00695 -5.28626
C 0.01138 -5.75115 3.88067
C -1.14884 -5.34312 4.16442
C -5.744 -2.07645 3.58621
C -5.83275 -1.18266 2.76479
C -2.24841 8.79892 -6.53297
C -2.07993 8.16151 -5.40701
C -11.0835 3.01238 18.5761
C -10.098 3.11446 19.2989
C 28.2339 -20.4752 -30.5362
C 29.2618 -21.0025 -30.1934
C -9.40263 2.50063 -2.23295
C -8.84137 2.34575 -3.366
C -0.474436 32.862 34.5405
C -1.08075 32.2076 33.7131
C -9.14993 6.08773 -0.449557
C -10.0509 6.81262 -0.0545059
C 8.35053 -15.8875 3.15272
C 7.76444 -14.9316 3.12837
C 5.19325 0.911377 4.26044
C 4.40255 0.943344 5.10616
H -0.35476 -4.97542 6.98968
C -1.57092 2.20872 -8.17047
C -0.5215 1.39811 -7.83954
C 6.71689 -5.35216 1.23558
C 6.69824 -6.53543 1.62234
C 0.388325 0.654644 -7.55182
C 1.26732 -0.15846 -7.10351
C -10.5792 2.69498 0.00290968
C -10.0219 2.66445 -1.08975
C -6.54936 -1.67348 -2.0328
C -6.16796 -2.46845 -1.28088
C -1.03512 4.71772 -8.91658
C -1.23618 3.49663 -8.62528
C 6.81899 -3.10566 0.159225
C 6.75889 -4.17988 0.626794
C -2.33321 9.96312 -8.70669
C -2.24099 9.37947 -7.71548
C 3.8535 -3.53912 -4.46866
C 3.22027 -2.74371 -5.23067
C -36.5071 34.6747 11.6826
C -37.593 35.1393 11.9097
H -1.91717 11.7665 -11.8705
C 1.19074 0.697647 7.28067
C 0.233615 0.514779 7.90123
C -3.13912 -6.84196 2.05041
C -2.26266 -7.72036 2.51441
C -8.16181 5.29061 -0.79963
C -7.12612 4.56293 -1.06926
C 2.45239 5.93391 -2.83061
C 3.64704 5.60166 -2.53513
C 0.0375657 6.40616 -3.10093
C 1.21341 6.14528 -2.92835
C 8.07843 3.63347 -1.56286
C 6.95626 4.2224 -1.73569
C -24.6187 37.9276 27.4115
C -25.3309 38.4178 26.5506
C 1.1516 -6.15584 3.4538
C 2.35043 -6.59668 2.95375
C 6.5421 -1.57415 -1.93778
C 6.85256 -1.75031 -0.42787
C 4.18407 -5.78229 -1.95561
C 3.08611 -6.32509 -1.28331
H -22.0152 2.90061 -32.4397
C 7.17134 -0.662906 0.354772
C 7.49805 0.484109 1.01496
C -21.2388 2.26819 -32.0078
C -20.3752 1.59089 -31.5553
C 3.40528 -7.06787 3.85746
C 4.23746 -7.41403 4.58272
C 2.94628 -6.46634 0.319843
C 2.6807 -6.53803 1.39463
C 0.887979 -5.99446 -2.67631
C 1.85966 -6.20612 -1.97882
C -0.0566472 -5.63309 -3.43651
C -1.15869 -5.3033 -4.28055
C 0.853306 10.1875 -11.3181
C 1.30957 11.0841 -12.1126
C 6.39798 -12.7448 3.29762
C 6.92478 -13.7286 3.2534
C -5.08764 5.27996 -6.91777
C -4.5807 4.8939 -5.94348
C 6.79007 0.723118 2.33086
C 6.11718 0.835235 3.25135
H 9.02092 4.01518 -2.05207
C 5.66818 -11.3537 3.40306
C 6.2548 -10.1626 2.90598
C 20.1012 -29.6016 5.15258
C 20.1748 -30.8602 5.10001
C 9.61409 -18.185 3.25968
C 9.1294 -17.1745 3.22073
C -6.87852 -0.726714 -2.87702
C -7.08686 0.177393 -3.70696
C 3.959 10.5168 -9.37018
C 3.72636 9.49768 -8.61474
C 0.547365 9.11987 -10.6603
C 0.186198 7.98906 -10.1444
C 19.6888 -39.9863 2.00226
C 19.1141 -38.915 2.23727
C 7.96798 2.49044 -0.668456
C 7.77223 1.63094 0.0524877
C -36.1074 -11.6472 15.4159
C -35.3538 -10.8375 14.8814
C -5.70045 -3.32662 -0.435288
C -5.20818 -4.24725 0.254051
H 10.0718 -19.1885 3.29875
C 4.44711 11.5316 -9.93891
C 4.95208 12.5069 -10.4278
C -3.30576 -6.82287 -4.54931
C -2.31806 -6.15062 -4.43564
C -0.931455 -2.98339 -5.5653
C -0.990137 -4.04184 -4.99229
C -39.8541 35.5497 28.7326
C -39.6315 36.5725 28.0543
C -20.4984 -18.8954 35.4121
C -20.5952 -17.7624 34.9009
C -6.20295 30.6561 -32.971
C -5.35992 30.0929 -33.6248
C -30.4933 39.5477 -37.7995
C -30.7449 38.3493 -37.65
C 0.743639 -9.94358 3.15143
C 1.95412 -10.4178 3.20887
C 6.77102 -1.4504 -5.3706
C 7.37154 -1.86992 -6.32971
C -20.2378 -21.2377 36.2608
C -20.3488 -20.0956 35.8577
H -2.7667 -0.388282 9.81117
C -28.8158 -12.721 23.1994
C -28.002 -13.6061 23.3977
C 8.41033 -14.2231 8.48183
C 7.26875 -14.691 8.39848
C -1.84402 -0.0301794 9.30362
C -0.899191 0.271368 8.73042
C -0.335302 -9.37217 3.09
C -1.3471 -8.55982 2.9077
C 19.9138 -39.7778 6.01175
C 19.048 39.4248 5.74731
C -1.92138 3.64012 6.23316
C -0.768733 4.01038 6.34297
C 32.4793 -20.7126 6.5747
C 32.3612 -21.6851 5.81344
C 6.06245 3.58041 -5.97684
C 5.56287 4.71693 -6.08892
C -3.81491 -6.03698 1.49668
C -4.60842 -5.10989 0.971672
C -26.5743 -9.06819 15.8899
C -27.658 -8.56421 15.6
H 29.4674 28.8226 -22.6387
C -9.66665 14.0514 23.9821
C -10.4342 14.9258 24.2683
C -5.80493 5.61346 -7.98143
C -6.56689 5.94962 -8.87462
C 10.1301 -34.6784 -30.2456
C 9.47298 -34.1698 -31.0959
C -35.7084 -8.5448 23.8312
C -35.6145 -9.43986 24.6254
C -24.3514 4.14499 -38.6601
C -25.0686 5.09961 -38.9345
C 4.36414 -11.1313 3.36921
C 3.14358 -10.7689 3.2497
C -2.84736 4.85675 33.5638
C -2.45073 4.48051 34.6244
C 2.80602 -22.2298 -4.66894
C 4.02462 -22.0188 -4.52941
C 3.23626 0.917664 5.88387
C 2.2519 0.910547 6.4979
C -12.8146 -26.7773 -10.9646
C -12.5304 -25.5545 -11.003
H 3.68036 15.7893 10.275
C -28.2153 35.9121 -24.8284
C -29.4992 35.8646 -24.9458
C 28.3243 17.2696 1.07619
C 28.0543 18.4966 0.856671
C -30.6512 9.3828 12.2379
C -30.4614 8.30695 12.8277
C -1.14867 13.6232 -4.37266
C -1.01764 14.4223 -5.36292
C 36.458 -39.3964 39.3979
C 36.5254 -38.4138 -39.8592
C -22.7043 25.1652 -19.0301
C -23.5591 25.3638 -19.9129
C -22.6709 8.15963 -8.94123
C -23.8231 8.20389 -9.27675
C -39.0467 -9.2287 17.1308
C -39.0534 -8.02218 17.2117
C -19.1169 36.8107 32.3295
C -19.5705 36.5482 33.4467
273
Atoms. Timestep: 20000
C 3.00116 -2.64776 6.06528
C 2.08176 -2.52884 6.8933
H 4.46784 -6.56614 -3.07847
C -27.0513 -39.8998 27.9458
C -26.5178 -39.4234 28.9083
C 1.05155 9.05027 -8.07225
C 1.14508 7.91724 -7.53778
C 5.45811 4.89446 -1.70309
C 4.33248 5.44946 -1.87658
C -4.83378 5.66476 0.252359
C -4.15978 6.19322 -0.658658
C 3.63045 -5.88954 -3.07159
C 3.37418 -4.75643 -4.05749
C 1.0531 -2.34133 7.6477
C 0.00283034 -2.16476 8.49705
C 1.03136 6.74908 -6.95822
C 0.83891 5.63176 -6.32318
C 11.4411 -3.84774 -1.66653
C 11.9775 -3.88051 -2.65731
C 10.5747 -3.78365 -0.477782
C 9.81209 -3.63404 0.355741
C 5.45393 -9.18788 0.955688
C 5.83174 -7.99497 0.417263
H 12.5891 -3.96421 -3.53251
C 0.697483 4.40492 -5.62109
C -0.56176 4.15544 -5.10813
C 8.73913 -3.28408 1.21183
C 7.84385 -3.07726 1.91594
C -5.86773 4.63088 2.27603
C -5.36044 5.16799 1.32721
C -5.26779 1.91601 -6.20914
C -6.19026 1.75263 -5.57218
C 26.6827 -26.6065 9.50947
C 26.7728 -25.3802 9.66107
C 7.12813 -7.05439 5.08772
C 5.98365 -6.87846 4.54733
C 3.52304 1.35111 -5.60688
C 4.26154 0.501641 -5.64085
C 2.54365 2.49961 -5.53386
C 1.82156 3.35257 -5.5648
C 5.87368 -2.84652 3.60186
C 6.81544 -2.8734 2.7919
C -6.48147 4.0053 3.31303
C -5.4856 3.36475 4.08779
H -7.62065 3.77644 3.35378
C -8.45512 2.39163 -4.75141
C -7.28817 1.48608 -4.63364
C -5.06221 -2.36951 5.98944
C -3.83035 -2.97263 5.63756
C -2.65748 7.00379 -2.48881
C -3.47462 6.69947 -1.68991
C -4.29274 3.80221 -4.34628
C -5.16153 3.39645 -3.07924
C -2.70936 -3.59748 5.40673
C -1.5782 -4.10709 4.9799
C -2.93041 3.87055 -4.51343
C -1.69352 3.96676 -4.70739
C 33.7947 -23.7527 33.0235
C 34.5404 -24.0081 33.936
C -1.98063 7.62204 -4.7732
C -1.56215 7.26008 -3.38199
C -2.04618 0.575897 6.5842
C -2.74641 1.40497 5.82056
C -1.38223 -0.321696 7.23992
C -0.774177 -1.17926 7.88029
H -5.49085 -2.28008 6.98724
C -0.921378 6.19486 -9.99984
C -0.683512 7.15759 -10.7536
C -3.63716 2.16062 5.30607
C -4.57678 2.72531 4.67656
C 1.60498 -0.915783 -6.84566
C 2.22718 -1.99123 -6.2702
C -6.38516 1.3311 0.950814
C -6.70058 2.01909 -0.0644219
C 5.54963 -1.09085 -4.08739
C 5.22218 -0.570606 -5.49169
C -5.86824 3.12053 -2.27305
C -7.01516 2.69809 -1.22588
C -4.08111 2.27761 -6.90639
C -3.11023 2.56041 -7.46439
C 3.92331 -2.75835 5.23165
C 4.87018 -2.80403 4.34386
C -5.9186 -0.100461 2.94497
C -6.17184 0.675303 1.95924
C -3.30066 9.50869 -10.6824
C -3.52095 9.90595 -11.7349
H -8.52474 3.22203 -5.50355
C 0.488664 -5.05509 4.01616
C -0.657368 -4.64742 4.52638
C -5.37665 -1.52769 4.9153
C -5.68162 -0.808066 3.95834
C -2.62265 8.28246 -7.09832
C -2.31718 7.891 -5.9468
C -2.39415 10.1725 28.3295
C -1.17696 10.4067 28.3966
C 29.656 -20.9011 -25.7287
C 28.6389 -20.1943 -25.8319
C -10.3843 1.78163 -3.18772
C -9.47705 2.12116 -3.93616
C -2.29874 27.7008 32.6973
C -3.01346 26.804 32.3643
C -9.85218 5.34835 -0.725081
C -10.7147 6.22464 -0.577791
C 7.18006 -15.1596 3.95317
C 6.52932 -14.2778 3.76117
C 5.14056 0.345318 3.9703
C 4.43395 0.561373 4.98667
H -0.139614 -2.56348 9.52891
C -1.82103 2.87349 -7.96126
C -0.71806 1.93449 -7.55613
C 6.07396 -5.67595 -0.389197
C 5.9974 -6.81401 0.071068
C 0.0330076 1.08332 -7.3339
C 0.931603 -0.00615103 -7.07851
C -12.2288 1.05445 -1.64002
C -11.3851 1.52909 -2.38544
C -7.11113 -1.17936 -1.72982
C -6.98613 -1.93793 -0.850645
C -1.23558 5.15635 -9.2971
C -1.52786 4.11057 -8.61654
C 6.07516 -3.31587 -1.1512
C 6.12852 -4.5647 -0.805002
C -3.01044 9.05422 -9.39952
C -2.88336 8.69642 -8.29023
C 3.12146 -3.94863 -4.82036
C 2.63854 -2.89466 -5.6888
C -33.6484 -38.831 5.42428
C -33.654 -39.7525 4.63084
H -3.83951 10.3156 -12.6893
C 2.01482 1.24198 7.8721
C 1.14427 1.50042 8.76249
C -4.08106 -5.96135 2.90653
C -3.23055 -6.85516 3.38673
C -8.98216 4.40896 -0.868115
C -8.01968 3.55931 -1.02907
C 2.07623 6.29152 -2.45128
C 3.24564 5.93348 -2.20758
C -0.261851 6.9445 -3.03369
C 0.892536 6.61021 -2.7247
C 7.669 3.82947 -1.07558
C 6.57314 4.41137 -1.41682
C -18.2937 39.8603 26.6175
C -18.5729 38.7537 26.2298
C 1.4318 -5.50046 3.49267
C 2.49505 -6.03874 2.82775
C 5.76414 -1.42737 -3.04642
C 6.03009 -1.98104 -1.58922
C 2.64851 -6.00125 -2.21125
C 1.65565 -6.21081 -1.28556
H -19.4679 5.31776 -29.8797
C 6.35541 -0.937275 -0.674575
C 6.64443 0.0425512 0.183806
C -20.3413 5.88036 -30.2447
C -21.3355 6.49668 -30.5192
C 3.71458 -6.39155 3.41677
C 4.78489 -6.68511 4.02349
C 1.95654 -6.25279 0.228119
C 2.16033 -6.11619 1.30853
C -0.982298 -6.42332 -1.98249
C 0.257251 -6.34397 -1.67658
C -2.2215 -6.36619 -2.27255
C -3.60823 -6.38776 -2.64227
C -0.0394563 10.3103 -12.7951
C 0.197393 11.3941 -13.2878
C 5.14207 -12.2873 2.77682
C 5.70664 -13.104 3.27889
C -5.49624 5.30346 -6.12068
C -4.88825 4.63017 -5.2659
C 6.08661 0.144311 1.62553
C 5.71742 0.230313 2.70343
H 8.69002 4.2089 -1.2486
C 4.33031 -11.0156 2.30587
C 5.01279 -10.0882 1.55608
C 26.6261 -27.8608 9.2229
C 26.457 -29.0067 8.87293
C 8.36917 -17.2936 4.92465
C 7.87491 -16.3809 4.4739
C -7.24501 -0.33026 -2.7286
C -7.28348 0.466289 -3.58821
C 1.04077 11.2533 -9.15764
C 1.04159 10.1768 -8.6388
C -0.268631 9.15169 -12.2768
C -0.468767 8.20494 -11.559
C 18.1482 38.7047 -4.59263
C 18.0133 39.6997 -5.23786
C 7.43049 2.41278 -0.757049
C 7.11633 1.38358 -0.448721
C 34.7222 -15.1602 15.3069
C 35.8701 -14.7895 15.4679
C -6.61065 -2.75449 0.0949801
C -6.09906 -3.58968 0.859455
H 8.8793 -18.2122 5.1827
C 0.945156 12.4202 -9.63047
C 0.965363 13.5047 -10.1463
C -5.00078 -8.63141 -2.59859
C -4.36734 -7.60891 -2.66795
C -4.63287 -3.913 -2.72523
C -4.2318 -5.12404 -2.70948
C -39.6092 24.9307 27.923
C -39.5746 25.2612 29.1332
C -9.67693 -27.7177 39.4909
C -9.40949 -28.861 39.7313
C 1.54577 26.3091 -31.5549
C 0.354582 26.3163 -31.3869
C -35.9327 32.2871 -30.4903
C -35.7745 33.3381 -31.0975
C -0.293446 -9.03677 3.737
C 0.789915 -9.63453 3.39911
C 6.14089 -0.76087 -6.55921
C 6.89369 -0.956989 -7.47328
C -10.1261 -25.3028 38.9566
C -9.92771 -26.437 39.2858
H -1.64929 1.84337 11.1258
C 39.7798 -7.34497 24.4829
C 39.7436 -7.1423 23.2903
C 5.275 -10.9842 6.23861
C 4.77727 -10.0055 5.66667
C -0.818945 1.76935 10.4169
C 0.0253441 1.66072 9.64691
C -1.40806 -8.39984 3.82289
C -2.4347 -7.64711 3.64913
C 16.3173 35.9513 4.97294
C 15.5067 36.844 4.94997
C -2.00967 9.08099 0.196566
C -2.13237 8.76618 1.3636
C -37.1111 -15.0313 5.99088
C -37.1275 -15.9158 5.17558
C 1.78595 3.25394 -13.3416
C 2.34558 2.78649 -12.3953
C -4.76628 -5.20714 2.1917
C -5.47194 -4.3963 1.54337
C -31.6521 1.62951 11.7341
C -30.565 1.0145 11.7414
H 36.4661 12.003 0.22796
C -1.14273 18.5673 18.2661
C -0.282513 18.0218 17.6416
C -6.05676 6.03009 -7.01296
C -6.48967 6.61216 -7.98315
C 1.50399 -38.5272 -29.598
C 0.867902 -39.1373 -30.3997
C -24.1439 -6.20137 23.1891
C -25.0524 -5.50211 23.5895
C -22.8907 1.69128 -33.2726
C -22.9218 2.58184 -32.4184
C 3.0297 -10.6249 2.73854
C 1.92751 -10.1422 3.06755
C -5.93066 3.29319 31.4044
C -6.88961 3.50427 30.6444
C -4.00097 -27.258 -6.09909
C -3.07802 -28.0552 -6.18046
C 3.69119 0.779112 6.00122
C 2.88302 0.988412 6.96039
C -23.2313 -25.5158 -16.1052
C -23.0153 -24.3505 -16.057
H 32.8862 -24.7294 9.30467
C -27.5683 34.1931 -24.7612
C -26.3428 34.1439 -24.5829
C 19.57 8.45497 -0.25487
C 19.4842 7.97136 -1.38573
C -34.3769 9.91617 16.5073
C -34.9811 10.5684 17.3598
C -4.34425 18.1981 -3.63338
C -3.56176 18.8525 -4.2353
C 31.6433 -30.3142 -39.6554
C 31.3063 -29.5082 -38.7764
C -20.9028 25.8638 -22.247
C -20.0314 25.1039 -22.6192
C -25.5699 5.57891 -11.1211
C -25.9905 6.18717 -10.1776
C 36.5249 -5.63638 19.2238
C 36.562 -6.77193 18.8101
C -26.3789 21.2822 33.0481
C -26.0993 21.943 34.026
273
Atoms. Timestep: 40000
C 3.34269 -3.28862 4.87818
C 2.58762 -3.10428 5.85197
H 4.36286 -5.69122 -3.9338
C -28.7064 -35.6785 24.7336
C -29.5703 -35.4162 23.9337
C 0.871707 7.29896 -8.66858
C 0.372434 6.35986 -8.04839
C 5.3802 4.19177 -2.78308
C 4.2135 4.71496 -2.91766
C -4.47633 5.10022 0.373088
C -3.83408 5.54921 -0.641794
C 3.27896 -5.47112 -3.83255
C 2.65838 -4.4793 -4.69442
C 1.69618 -2.85679 6.73546
C 0.846164 -2.6422 7.74849
C 0.0255066 5.40128 -7.34633
C -0.325341 4.38854 -6.70269
C 12.0757 -3.52514 -2.40758
C 12.9919 -3.29035 -3.03612
C 10.9217 -3.7838 -1.58209
C 9.97652 -3.93872 -0.934945
C 4.21194 -9.19917 0.864108
C 4.6886 -8.28594 0.149851
H 13.8866 -2.99603 -3.64401
C -0.59776 3.19935 -6.04563
C -1.84342 3.07588 -5.41274
C 8.91298 -4.03004 -0.125374
C 8.01292 -4.0629 0.615617
C -5.43806 4.2781 2.57519
C -4.96391 4.73215 1.51809
C -6.80573 3.24814 -7.10762
C -7.70059 3.41982 -6.4401
C 33.4948 -24.8612 13.8731
C 33.6232 -23.7888 14.44
C 7.24814 -7.4418 3.85956
C 6.10545 -7.14913 3.59679
C 2.39987 0.463573 -5.75675
C 3.24381 -0.323919 -5.73167
C 1.35282 1.41384 -5.87432
C 0.519907 2.20256 -5.91191
C 6.18082 -3.99591 2.3244
C 7.01904 -4.08579 1.50362
C -6.08923 3.79474 3.65741
C -5.27176 3.00479 4.40755
H -7.19554 4.01818 3.87748
C -9.89686 4.37176 -5.64308
C -8.85832 3.43187 -5.4639
C -4.33058 -2.44255 6.63184
C -3.20226 -3.2197 6.34744
C -2.5312 6.31254 -2.70011
C -3.18938 5.94219 -1.66316
C -5.36953 3.6353 -3.8522
C -6.03098 3.26658 -2.46151
C -2.13991 -3.75839 5.83898
C -1.093 -4.2126 5.27804
C -4.13025 3.38863 -4.35813
C -2.97872 3.16417 -4.88533
C 29.8549 -12.5778 29.8847
C 29.5311 -13.1506 30.8948
C -2.36047 6.65213 -5.11261
C -1.80243 6.77409 -3.86085
C -1.94171 -0.154301 6.59369
C -2.81386 0.674673 6.24184
C -1.05367 -0.994538 6.91494
C -0.142327 -1.76855 7.26526
H -4.99121 -2.49047 7.48963
C -1.70881 5.79968 -10.7275
C -1.30866 6.7836 -11.3516
C -3.71145 1.4736 5.77065
C -4.54698 2.25387 5.17076
C 0.0329922 -1.12613 -7.46819
C 0.735479 -1.91674 -6.8451
C -6.13765 1.16009 1.78455
C -6.55047 1.9778 0.857575
C 4.95814 -1.72824 -4.33228
C 4.24878 -1.31589 -5.73589
C -6.45633 3.00509 -1.46709
C -7.10653 2.8165 -0.0923823
C -5.52115 3.02752 -7.8907
C -4.5221 2.8368 -8.35298
C 4.33539 -3.47044 4.00863
C 5.23188 -3.78911 3.16752
C -5.34642 -0.251807 3.62895
C -5.75074 0.449473 2.69605
C -5.98971 6.68622 -10.575
C -6.73797 6.54199 -11.3971
H -9.85909 4.98314 -6.58077
C 0.750422 -5.21235 3.96493
C -0.168399 -4.7127 4.66653
C -4.65499 -1.66012 5.574
C -4.95405 -0.908224 4.64772
C -3.63797 6.51245 -7.30462
C -2.97249 6.57483 -6.19801
C 6.5079 17.3318 38.1467
C 7.51965 17.6188 37.554
C 29.091 -19.9511 -21.1241
C 30.0041 -20.7615 -21.2554
C -11.8277 4.2846 -3.83589
C -10.8927 4.27622 -4.64271
C -4.19079 22.4497 30.8272
C -4.88344 21.4763 31.038
C -9.55603 5.797 0.641816
C -10.4201 6.61921 0.937139
C 4.54244 -12.747 7.01911
C 4.21082 -12.2759 6.05572
C 6.20186 -0.468778 3.65875
C 5.84418 -0.56973 4.73632
H 0.840909 -3.08969 8.73499
C -3.08638 2.61087 -8.96815
C -2.22139 1.54953 -8.65327
C 5.29813 -6.10304 -0.743032
C 5.08164 -7.2172 -0.389182
C -1.42991 0.734317 -8.41591
C -0.627193 -0.299511 -7.95853
C -13.7533 4.14353 -2.24955
C -12.8225 4.14746 -3.06733
C -8.31384 0.622059 -2.83167
C -7.94029 -0.295104 -2.10236
C -2.11925 4.68606 -10.1545
C -2.53481 3.68965 -9.63446
C 5.70366 -3.73755 -1.40341
C 5.52434 -4.95021 -1.05616
C -5.06603 6.82752 -9.42322
C -4.42358 6.71779 -8.48594
C 1.97997 -3.68338 -5.40329
C 1.42042 -2.77303 -6.11683
C -30.8094 -33.623 -1.95975
C -29.6864 -33.3425 -1.54001
H -7.47225 6.46587 -12.2203
C 4.1809 -1.15412 8.27987
C 3.69555 -1.29527 9.29735
C -5.27093 -4.42468 1.50498
C -4.44614 -5.36868 1.85283
C -8.7685 4.70982 0.548695
C -8.05078 3.81358 0.319184
C 2.00494 5.81331 -3.40746
C 3.11463 5.29681 -3.14464
C -0.340825 6.492 -3.76033
C 0.808708 6.23346 -3.68033
C 7.75805 3.26465 -2.14575
C 6.54314 3.83549 -2.54907
C -12.7648 -39.8229 25.7625
C -12.4954 -39.2254 26.7875
C 1.55661 -5.71513 3.23827
C 2.45454 -6.32912 2.40352
C 5.40793 -1.98035 -3.36049
C 5.93557 -2.37444 -1.92203
C 2.51331 -5.9121 -2.80491
C 1.65511 -6.29713 -1.77975
H -22.0098 7.8623 -28.9175
C 6.35082 -1.29375 -1.19246
C 6.79905 -0.216276 -0.377481
C -21.7149 6.96435 -29.4721
C -21.4501 6.00603 -30.1335
C 3.74863 -6.55918 2.93046
C 4.91119 -6.88003 3.27932
C 1.96193 -6.20135 -0.216626
C 2.16703 -6.16573 0.876616
C -0.915231 -5.86759 -2.42717
C 0.30438 -6.01214 -2.09841
C -2.12555 -5.75215 -2.49602
C -3.56664 -5.68595 -2.38937
C 0.0610095 9.43459 -13.6871
C 0.493512 10.2168 -14.5736
C 3.25379 -11.1637 3.85739
C 3.70692 -11.6162 4.76925
C -6.79679 5.5653 -5.13205
C -6.10441 4.66281 -4.48358
C 6.61566 -0.222119 1.12353
C 6.39064 -0.251481 2.23622
H 8.76562 3.63009 -2.37576
C 2.7871 -10.4416 2.5941
C 3.61356 -9.83765 1.6731
C 33.138 -25.9255 13.2764
C 32.7412 -26.984 12.741
C 5.30332 -13.7467 9.31917
C 5.00167 -13.3167 8.33451
C -8.6242 1.57546 -3.61345
C -8.75274 2.49048 -4.4148
C 1.64992 9.24436 -10.0485
C 1.33347 8.26655 -9.36218
C -0.38966 8.61734 -12.8567
C -0.860472 7.65681 -12.1311
C 16.4641 38.2666 -11.547
C 16.8702 37.5479 -12.4926
C 7.52373 1.99057 -1.51243
C 7.26069 0.996617 -0.994849
C 22.8082 -20.7477 9.60612
C 23.6013 -21.6455 9.53667
C -7.5154 -1.17697 -1.3307
C -7.02114 -1.91955 -0.492026
H 5.67556 -14.1154 10.2545
C 2.07431 10.1342 -10.9064
C 2.48536 10.923 -11.6809
C -5.17373 -7.74626 -1.9435
C -4.38811 -6.8682 -2.11408
C -4.68293 -3.31404 -2.48943
C -4.12837 -4.44856 -2.44149
C -39.3174 14.735 28.6841
C -39.5641 13.4968 28.6405
C 0.6745 -34.0428 -36.9117
C 0.392913 -32.8579 -36.9197
C 7.1969 21.9649 -29.8437
C 8.18461 22.5261 -29.4393
C 38.9264 27.0459 -24.3411
C 38.8834 26.2912 -23.3665
C -1.73994 -7.87381 2.35674
C -0.748074 -8.60092 2.49144
C 4.87721 -1.63159 -6.91458
C 5.36744 -1.92478 -7.98243
C 1.35144 -36.4907 -36.8187
C 1.03745 -35.2948 -36.8322
H 2.08518 -2.09392 12.5524
C 33.8416 -0.974424 30.8224
C 33.3648 -1.43102 31.8291
C 2.42869 -7.64316 6.90979
C 1.56994 -8.1716 6.28351
C 2.67254 -1.85803 11.6248
C 3.09031 -1.54865 10.6249
C -2.59721 -7.00605 2.20558
C -3.55612 -6.14752 2.05055
C 11.9742 32.5224 4.04151
C 12.8846 33.3044 4.1632
C -6.28722 9.67192 -10.1606
C -5.13922 9.58912 -9.8034
C -26.6643 -9.31911 5.39664
C -26.6255 -10.162 4.5465
C 3.11904 5.50078 -27.2594
C 4.12501 5.91388 -26.7224
C -5.96358 -3.47792 1.06914
C -6.52682 -2.67592 0.318472
C -34.6035 11.1329 7.58385
C -35.6101 11.8142 7.86683
H -36.5125 -4.83582 23.1233
C 9.05784 22.0261 11.3385
C 8.2174 22.1851 12.2102
C -7.5124 6.4388 -5.87317
C -8.02078 7.25892 -6.68262
C -7.41631 37.3697 -29.3061
C -7.46595 36.1378 -29.3458
C -13.7784 -2.60972 23.1555
C -13.466 -2.09734 22.1145
C -20.6788 3.85139 -26.198
C -19.6689 3.36918 -25.7945
C 1.47456 -9.86299 2.65984
C 0.320906 -9.3184 2.58779
C -10.7751 2.16148 27.8084
C -9.54233 2.1928 27.9945
C -10.4301 -32.5792 -7.5559
C -10.577 -33.8134 -7.80897
C 5.29188 -0.781729 6.00967
C 4.81333 -0.981981 7.03002
C -33.6953 -24.296 -21.2152
C -33.4808 -23.1015 -21.1552
H -18.388 14.4128 8.38027
C -24.4179 32.41 -24.3569
C -25.6846 32.4827 -24.5565
C 9.32135 -0.560452 -2.30025
C 9.09475 -0.721075 -3.54139
C -38.8447 11.249 21.8199
C -38.7697 12.0345 20.8616
C -7.41062 22.4879 -3.18668
C -6.3004 22.8937 -3.25333
C 26.8368 -21.0588 -38.7542
C 26.1861 -20.4908 -37.8828
C -17.8825 25.5044 -25.9838
C -17.7154 25.9027 -24.8135
C -28.827 3.51481 -12.4952
C -27.8066 3.64769 -11.8883
C 30.0665 -2.13257 20.3918
C 29.3323 -1.64276 19.5627
C -31.4132 4.66457 35.2352
C -30.8474 5.71492 34.9682
273
Atoms. Timestep: 60000
C 3.28204 -3.14574 5.64746
C 2.59146 -2.70267 6.60202
H 2.6742 -7.27807 -3.30093
C -31.8856 -31.0996 20.0787
C -31.0499 -31.8517 20.4867
C 0.528079 6.07619 -9.98042
C 0.346017 5.24207 -9.0248
C 4.997 2.60268 -4.65077
C 3.93049 3.25248 -4.58304
C -4.24069 5.46072 0.560081
C -3.6619 5.50232 -0.561025
C 1.85316 -6.54267 -3.08759
C 1.01501 -5.69675 -4.01546
C 1.85498 -2.21471 7.57242
C 1.14118 -1.72419 8.58672
C 0.0811082 4.47477 -8.07004
C -0.181251 3.68995 -7.19755
C 9.4891 -6.90197 -2.91295
C 9.97656 -7.61882 -3.6405
C 8.74835 -6.07249 -2.00916
C 8.07063 -5.50895 -1.2578
C 3.84627 -9.91596 1.20503
C 4.34165 -9.08504 0.404487
H 10.496 -8.29098 -4.33187
C -0.580179 2.63283 -6.35328
C -1.74018 2.91659 -5.63731
C 7.32255 -5.05875 -0.29024
C 6.67296 -4.57712 0.673808
C -5.24509 5.19641 2.91957
C -4.76168 5.31856 1.726
C -6.79707 3.00888 -7.23147
C -7.67782 3.13539 -6.54667
C 39.977 -23.1585 18.3162
C -39.4645 -22.3414 19.1099
C 7.08303 -6.79791 4.379
C 5.89273 -6.92609 4.13357
C 1.70432 -0.896516 -6.27746
C 2.36276 -1.81099 -6.33156
C 0.761318 0.301216 -6.20502
C 0.139095 1.24228 -6.2114
C 5.43911 -3.88096 2.68906
C 6.06003 -4.18115 1.67464
C -5.64994 4.94285 4.20732
C -4.71231 4.01248 4.74049
H -6.56421 5.24233 4.64546
C -8.92885 4.92962 -5.40283
C -8.60614 3.48158 -5.44382
C -4.2397 -1.76717 6.92682
C -3.17274 -2.39629 6.48889
C -2.53084 6.00991 -2.73776
C -3.06017 5.70855 -1.65142
C -4.90057 4.37392 -3.87638
C -5.443 3.82289 -2.46827
C -2.11701 -2.99442 6.08169
C -1.09551 -3.72178 5.66208
C -3.79709 3.79321 -4.47561
C -2.75811 3.28548 -5.05574
C 25.8357 -1.79183 27.2779
C 24.6936 -2.13166 27.3847
C -2.32143 6.7789 -5.18179
C -1.69952 6.30311 -3.95568
C -1.40149 0.799707 7.02289
C -2.25083 1.57935 6.4688
C -0.600148 0.0138142 7.47661
C 0.221062 -0.816421 8.02137
H -4.52781 -1.56528 7.9491
C -1.4142 3.75652 -11.956
C -1.04419 4.35762 -12.9205
C -3.11114 2.33482 5.8715
C -3.95417 3.17521 5.31308
C -1.18046 -2.03328 -6.75896
C -0.691773 -3.03154 -6.1099
C -5.96915 1.63292 1.78783
C -6.35126 2.25719 0.837261
C 4.14939 -3.17653 -5.45979
C 3.26374 -2.91406 -6.69445
C -5.96422 3.46238 -1.55664
C -6.76474 2.93485 -0.28889
C -5.57131 2.92598 -8.12694
C -4.57509 2.67704 -8.55724
C 4.03076 -3.39507 4.7053
C 4.71156 -3.64814 3.69254
C -5.41891 0.128796 3.80179
C -5.70512 0.859006 2.74352
C -4.57449 8.58195 -10.997
C -5.08353 8.85534 -11.9672
H -9.02468 5.53356 -6.3096
C 0.658952 -5.28865 4.67138
C -0.241898 -4.42638 5.27332
C -4.76533 -0.972228 5.84431
C -5.13844 -0.37877 4.90563
C -3.10805 7.52319 -7.469
C -2.79592 7.12806 -6.29061
C 15.4216 24.447 -32.2326
C 16.019 24.7126 -33.2592
C 30.3034 -20.6201 -16.8689
C 29.5837 -19.7137 -16.4245
C -8.80166 5.73194 -2.93953
C -8.86344 5.39662 -4.17475
C -6.15669 17.1298 28.963
C -6.64059 16.3269 29.739
C -10.5514 3.58326 -0.473306
C -11.734 3.69484 -0.556218
C 3.07564 -16.1328 4.50089
C 2.87705 -15.1356 4.02667
C 6.06131 -0.566391 1.99885
C 5.71625 -0.114563 3.00912
H 1.39725 -1.82817 9.66291
C -3.21579 2.22025 -9.04402
C -2.73511 0.954405 -8.41664
C 4.69869 -7.1547 -1.20031
C 4.57106 -8.16889 -0.460606
C -2.26171 -0.0678022 -7.92301
C -1.72986 -1.01173 -7.32655
C -8.49976 6.13783 -0.549347
C -8.77425 6.04693 -1.75665
C -7.66109 1.09525 -2.58323
C -7.38199 0.1595 -1.7468
C -1.89653 3.20761 -10.9116
C -2.50096 2.71285 -10.0277
C 5.03435 -4.96795 -2.295
C 4.9419 -6.06052 -1.78241
C -3.88082 8.23652 -9.73935
C -3.45699 7.93257 -8.71291
C 0.418349 -4.98138 -4.67533
C -0.274791 -4.04076 -5.43326
C -26.4088 -28.0421 -8.64706
C -27.3511 -27.426 -8.26692
H -5.49407 9.00016 -13.0171
C 3.81734 1.60602 5.87299
C 3.15938 2.26596 6.56074
C -5.12964 -4.29886 2.11807
C -4.38569 -5.22101 2.64779
C -9.32569 3.2722 -0.333749
C -8.14826 3.07751 -0.254056
C 1.75564 4.51132 -4.40045
C 2.84057 3.93442 -4.5033
C -0.45669 5.71126 -4.03469
C 0.69976 5.20892 -4.15898
C 7.21512 1.28965 -4.56852
C 6.10905 1.96527 -4.62907
C -6.84085 -38.5504 26.6994
C -6.93336 -38.1843 25.5565
C 1.35227 -5.9851 4.07491
C 2.23498 -6.67763 3.14853
C 4.6159 -3.35214 -4.46025
C 5.1028 -3.62544 -2.97051
C 1.26882 -6.43129 -1.90127
C 0.651579 -6.3035 -0.696989
H -20.9333 2.64817 -26.2068
C 5.7312 -2.66551 -2.32348
C 6.37635 -1.63643 -1.826
C -21.0324 3.73237 -26.0296
C -21.125 4.90004 -25.8296
C 3.52331 -6.87781 3.4679
C 4.66525 -6.95872 3.79128
C 1.34814 -6.64374 0.681468
C 1.78495 -6.78399 1.6768
C -1.9864 -6.06159 -0.957101
C -0.77757 -6.20968 -0.752443
C -3.27135 -5.97224 -1.10518
C -4.70846 -5.75157 -1.32786
C 0.123203 6.53133 -15.8437
C 0.48868 7.21516 -16.799
C 2.43415 -12.7442 3.0859
C 2.61936 -13.773 3.50275
C -6.08768 6.29661 -5.11444
C -5.49849 5.39031 -4.51496
C 6.39835 -1.3818 -0.344216
C 6.36205 -1.1068 0.76301
H 8.18781 1.56256 -5.08965
C 2.12759 -11.2745 2.63909
C 3.01886 -10.5895 1.88574
C 39.5073 -23.9031 17.3421
C 38.9939 -24.562 16.4665
C 3.66051 -18.5249 5.4292
C 3.36409 -17.542 5.00192
C -7.96035 1.96711 -3.45368
C -8.2445 2.66679 -4.35241
C 0.947629 7.70927 -11.8482
C 0.748103 6.86532 -10.8837
C -0.230296 5.7096 -14.8717
C -0.618248 5.01973 -13.8533
C 15.248 37.0521 -19.4995
C 15.2884 36.1993 -18.6021
C 7.05174 0.218949 -3.63656
C 6.84359 -0.606513 -2.85517
C 11.6204 -27.0346 3.91387
C 11.025 -28.0484 3.70066
C -7.06307 -0.591075 -0.764397
C -6.65156 -1.43556 0.134095
H 3.93283 -19.5194 5.81711
C 1.15632 8.49581 -12.8876
C 1.4847 9.23547 -13.8307
C -6.78286 -6.90102 0.122783
C -5.77019 -6.35424 -0.487224
C -5.4053 -4.13773 -3.22223
C -4.94233 -4.8675 -2.38134
C -39.581 3.38151 28.1909
C -39.4447 3.94045 27.0238
C 11.601 37.2254 -33.274
C 12.0684 36.1083 -33.4117
C 14.5767 18.6477 -27.4733
C 14.1495 17.8067 -28.2184
C 33.7792 20.5107 -16.3828
C 33.6563 20.6654 -17.5883
C -1.88942 -7.94505 3.24083
C -0.966858 -8.87503 3.17931
C 3.08234 -3.76209 -7.69497
C 2.92291 -4.61099 -8.51899
C 10.7754 39.5306 -32.8062
C 11.1667 38.3963 -33.0931
H 1.09912 3.93613 9.17777
C 27.0234 4.47513 38.8681
C 27.9373 5.09071 38.405
C 2.68187 -9.00614 7.40994
C 1.79819 -9.04933 6.5358
C 1.74954 3.44703 8.40603
C 2.32603 2.90994 7.6035
C -2.72594 -7.05791 3.14992
C -3.54328 -6.11711 3.03467
C 8.59909 29.9271 3.24371
C 9.37049 28.9984 3.26417
C -2.84779 10.8934 -15.845
C -2.27589 9.9375 -16.268
C -16.2597 -3.59199 4.78976
C -16.2984 -4.54196 3.94274
C 4.69448 7.99092 39.3345
C 5.40966 8.99792 39.1025
C -5.67144 -3.36472 1.49182
C -6.14471 -2.34017 0.808595
C -39.5042 21.8696 4.01288
C -38.6241 21.17 3.49629
H -29.5524 -21.4969 -34.2206
C 17.5977 25.667 6.14694
C 18.1805 26.0923 5.16712
C -6.73224 7.29372 -5.68972
C -7.34304 8.20157 -6.17439
C -16.2467 32.8044 -29.0067
C -15.7154 31.9263 -28.308
C -4.16536 2.88349 23.711
C -3.69204 1.79817 23.9566
C -18.391 7.56954 -22.3482
C -19.3302 8.14198 -22.8354
C 0.94641 -10.5753 2.83614
C -0.0807675 -9.753 3.01282
C -12.1565 -0.142589 22.5863
C -13.243 -0.385783 23.1447
C -16.9579 -38.2693 -9.09382
C -17.8331 -39.0879 -9.3244
C 5.16984 0.458816 4.10217
C 4.60631 0.994848 4.96863
C 36.0251 -23.0877 -26.3893
C 36.0862 -21.8665 -26.0835
H -6.56511 -11.5158 5.41755
C -23.7599 30.836 -24.3794
C -22.5729 30.6474 -24.108
C 0.564941 1.06197 -15.0514
C 1.12697 -0.0261618 -14.939
C 37.0771 13.0837 27.1564
C 37.5809 12.1471 26.6239
C -10.3128 26.7638 -2.72588
C -9.14306 26.8623 -2.30025
C 22.1011 -11.7519 -37.752
C 21.098 -11.7144 -37.1089
C -14.6743 25.756 -28.0112
C -15.6388 26.1267 -28.6611
C -31.1087 1.60097 -13.2838