63
Atoms. Timestep: 0
C 1.64595 6.57618 23.481
C 0.543525 6.09279 23.5335
H 26.3799 23.525 -27.9877
C -36.5437 -35.0659 19.3554
C -36.1635 -34.2621 18.5484
C -6.33376 -2.25848 29.8553
C -5.42347 -2.68812 29.1923
C -23.5581 -8.64154 35.9739
C -24.4572 -8.03151 36.4942
C -11.1862 -25.3387 -16.9233
C -10.8018 -26.2738 -16.2574
C 27.3132 23.0432 -28.2256
C 28.403 22.5321 -28.4201
C 3.43358 19.8351 7.75913
C 4.11076 20.6562 7.18245
C -4.52218 -3.2454 28.4194
C -3.82491 -3.85912 27.559
C 15.3955 -10.9985 -34.3643
C 14.4278 -11.2966 -34.8993
C 16.6024 -10.6451 -33.7442
C 17.6703 -10.3783 -33.3095
C 9.80348 12.1512 -35.1679
C 10.274 13.1647 -34.6549
H 13.5284 -11.5834 -35.433
C -10.716 -14.3629 -38.7091
C -9.55638 -14.4346 -38.2592
C -14.2108 -15.2287 -17.5642
C -15.3457 -15.0168 -17.9323
C -28.9205 28.8 33.4007
C -28.1217 28.6342 32.5118
C -11.9897 -6.16444 -19.6011
C -11.7265 -6.72177 -18.562
C -7.3913 35.3914 20.8246
C -6.61618 34.6851 21.4431
C 37.6899 -24.1339 -23.6289
C 37.6879 -25.223 -23.0923
C 0.77807 -31.3305 25.0321
C 0.00343842 -31.7049 25.9225
C -37.5776 28.4717 -21.8936
C -37.9605 29.2338 -22.7496
C -26.6555 22.362 -21.068
C -27.145 23.3799 -20.6526
C -12.5915 -26.632 -10.4003
C -12.374 -25.6207 -9.69625
H 4.82248 14.6006 15.3138
C -28.4886 35.6656 -25.0443
C -29.5515 35.2056 -25.5198
C 28.3195 17.2916 1.07225
C 28.0592 18.4746 0.860605
C -29.9115 8.80345 11.7625
C -30.0149 7.8482 12.526
C -6.20895 13.7707 -8.63098
C -5.4007 14.5841 -9.17283
C 37.1075 -24.8211 -35.6465
C 37.268 -25.7621 -36.4287
C -23.4802 25.094 -19.6091
C -24.4072 25.0187 -20.3352
C -22.6531 8.15895 -8.93607
C -23.8408 8.20458 -9.28192
C -27.9906 -3.75492 4.73629
C -29.2904 -3.65116 4.81898
C -20.0291 -36.8719 34.5957
C -19.8478 -36.2352 33.6017
63
Atoms. Timestep: 20000
C -1.08293 4.43588 32.9457
C 0.0402698 4.87691 32.7876
H 26.7892 26.468 -22.8703
C -29.2373 -35.9017 12.0488
C -28.5076 -36.3174 11.1817
C -12.1875 -3.72299 33.8144
C -12.3384 -3.76046 32.5685
C -25.5135 -21.5224 36.5702
C -24.6908 -21.6518 37.4199
C -14.2184 -24.816 -16.7303
C -15.3342 -25.1181 -16.4017
C 26.6002 25.3571 -22.8875
C 26.4881 24.1588 -22.9785
C 10.7899 35.008 8.45439
C 11.6986 34.2248 8.26393
C -12.3617 -3.63974 31.2899
C -12.3619 -3.58502 30.0952
C 19.1869 -10.0267 -28.7481
C 19.1565 -10.7465 -27.8322
C 19.0556 -9.13769 -29.7094
C 18.8078 -8.30761 -30.5533
C 6.8597 14.7427 -36.1999
C 7.33151 15.4423 -35.2985
H 19.157 -11.4396 -26.9974
C -13.4204 -17.5813 39.4113
C -14.2355 -18.435 39.3038
C -7.20626 -12.4908 -20.613
C -7.33956 -11.5081 -19.9414
C -31.0995 28.6729 39.9157
C -30.9941 28.1527 38.8202
C -14.8779 -4.98315 -26.6691
C -15.4148 -4.39126 -25.7393
C -3.99755 37.0683 15.4345
C -4.66635 37.0758 16.4601
C 37.8006 -25.617 -31.7007
C 36.9085 -25.0424 -31.1542
C 5.54496 -38.7604 28.9394
C 6.47582 -38.0904 28.4959
C 38.1262 29.6888 -25.0966
C 37.6487 30.4283 -25.9846
C -25.4898 17.2124 -16.3715
C -25.0566 16.1202 -16.2411
C -18.105 -37.7788 -13.1766
C -18.3406 -38.6073 -14.0024
H -25.3797 -23.9326 -9.45538
C -33.9218 33.9904 -36.3064
C -33.0687 33.8976 -37.1843
C 18.3443 27.9538 2.91777
C 18.8262 27.0045 3.54918
C -27.7423 10.9649 9.63286
C -28.1492 10.7594 10.775
C -0.793071 6.79808 -3.26656
C -0.58566 7.08108 -2.13611
C -27.8334 -20.0858 -39.3379
C -27.7352 -20.9947 39.7816
C -14.5577 27.4612 -15.8175
C -13.6189 27.2568 -16.6118
C -26.3052 18.1078 -12.9189
C -26.8612 18.5894 -13.8694
C -22.7528 -5.13668 8.61773
C -23.9376 -5.5433 8.91356
C -32.3112 -35.0533 31.8201
C -32.3792 -34.977 33.0095
63
Atoms. Timestep: 40000
C -1.59205 3.15506 -37.8838
C -2.69506 2.78876 -37.5928
H 26.9084 27.199 -17.6325
C -21.4938 -36.9735 4.22776
C -21.232 -38.1476 4.27353
C -18.2739 -5.17538 36.084
C -19.1523 -4.63881 35.4279
C -27.0299 -33.6388 39.224
C -26.0528 -34.1343 38.675
C -18.4018 -24.6228 -16.1518
C -18.7872 -23.6916 -16.808
C 25.8635 26.9746 -17.5711
C 24.6963 26.6538 -17.443
C 19.0479 -30.5118 8.96834
C 18.4416 -31.4047 9.53344
C -20.1195 -4.09224 34.8082
C -20.9599 -3.469 34.2382
C 22.6657 -7.85241 -24.1989
C 23.6682 -7.43204 -23.92
C 21.4746 -8.69485 -24.3364
C 20.5716 -9.48473 -24.4114
C 3.95321 17.4362 -37.168
C 4.32929 17.6364 -36.0126
H 24.6134 -6.94643 -23.6319
C -13.7174 -23.9013 37.9976
C -14.8268 -24.3205 37.6563
C -0.300999 -8.80724 -23.0362
C 0.8227 -8.91643 -22.5973
C -33.9448 29.5844 -33.9971
C -34.2326 28.5076 -34.4728
C -18.1375 -3.39819 -33.1607
C -18.7565 -2.45581 -33.5454
C -1.23156 38.7585 11.0073
C -2.06841 39.4688 10.4747
C 36.8081 -26.3919 -39.1287
C 37.2297 -25.5748 -39.9216
C 12.1031 35.0528 32.0033
C 11.1998 34.2284 31.9376
C 33.9427 31.1591 -29.402
C 32.9156 30.9134 -29.9465
C -22.3139 9.24229 -13.5616
C -22.8383 10.3058 -13.5331
C -24.1037 29.4809 -17.7643
C -23.8303 29.9706 -16.6461
H 26.0204 23.2459 -13.675
C -37.7524 31.2667 31.2817
C -37.2094 31.7496 32.2917
C 9.24429 36.8423 5.96391
C 8.64486 37.3812 5.05445
C -25.6805 13.1088 7.80286
C -26.1605 13.7075 8.70958
C -0.0394948 18.3022 -3.03499
C -0.434022 18.1601 -4.20783
C -15.0901 -14.5585 34.6641
C -16.1502 -14.0269 34.617
C -4.67328 29.4812 -12.9907
C -3.97672 29.6456 -11.9425
C -30.3406 29.4683 -15.5978
C -31.3847 29.1841 -16.1225
C -17.6536 -6.54753 12.5401
C -18.4059 -7.41882 12.9976
C 35.2307 -33.1128 31.2161
C 35.1708 -33.829 30.2331
63
Atoms. Timestep: 60000
C -4.30834 1.13882 -28.1557
C -3.21754 1.44193 -28.5637
H 25.5998 27.4004 -12.1007
C -13.6195 -38.7005 -3.5509
C -14.1133 -39.3177 -2.65125
C -25.3594 -5.76102 37.6138
C -26.246 -5.16963 38.204
C -27.7938 34.1629 -38.3899
C -28.0221 34.0483 -39.5902
C -22.9748 -23.4795 -16.2437
C -21.8373 -23.218 -16.5441
C 24.8832 28.2274 -11.9003
C 24.0751 29.1014 -11.7411
C 26.7001 -16.9149 10.0286
C 25.7642 -16.2013 10.2535
C -27.3413 -4.61417 38.6886
C -28.4013 -4.14846 39.2046
C 24.9263 -6.81955 -19.796
C 24.4839 -6.22796 -20.6533
C 25.5562 -7.44771 -18.6538
C 26.0661 -7.96038 -17.7236
C 1.08642 20.1329 -38.015
C 1.29771 19.8188 -36.8446
H 24.0943 -5.58678 -21.4441
C -10.1453 -32.7232 37.2553
C -10.6483 -33.8227 37.0998
C 7.67223 -5.23273 -25.0315
C 7.89062 -6.22673 -25.6722
C -37.0745 30.4557 -28.1777
C -37.4867 29.4427 -27.6767
C -21.9319 -1.43096 39.9281
C -21.9142 -1.2539 38.7084
C 0.347392 -39.0357 6.14031
C 1.11698 -39.248 5.23711
C 36.3264 -26.1507 32.4852
C 37.0413 -27.1212 32.2976
C 17.007 27.3429 34.8436
C 17.5583 28.0946 35.5913
C 28.4729 31.7896 -35.7929
C 29.1307 31.424 -34.8137
C -20.2758 3.54801 -10.6089
C -19.6324 2.48529 -10.8273
C -29.7402 17.6967 -20.1893
C -29.9935 17.6459 -21.3669
H -7.87755 5.49384 11.1867
C 39.2819 28.88 20.2033
C 38.1095 28.7308 20.6307
C -0.521454 -32.7589 8.1721
C -0.246776 -33.199 7.09992
C -23.7445 15.3505 6.2334
C -24.0533 16.5488 6.39043
C -0.0187018 29.2984 -4.98656
C 0.519334 29.0511 -3.89308
C -7.86311 -5.23794 27.4619
C -7.86918 -5.27419 28.7004
C 5.94404 31.674 -8.98389
C 4.8841 31.8363 -8.44691
C -34.5014 -39.4316 -18.5981
C -35.2956 39.7438 -18.2688
C -12.6591 -8.0715 16.5159
C -12.7882 -9.17548 17.0142
C 22.6806 -32.4997 28.8407
C 22.8564 -31.359 29.234
63
Atoms. Timestep: 80000
C -4.89595 -0.330893 -19.1819
C -5.90701 -0.491196 -18.5585
H 23.2277 28.851 -6.06956
C -5.93048 39.2038 -10.9139
C -6.63188 39.8468 -10.1655
C -32.2238 -3.63133 -39.3861
C -32.784 -4.19649 -38.5002
C -28.7269 21.7437 -36.7962
C -29.8545 22.1678 -37.0143
C -26.2722 -22.0486 -16.6644
C -26.2531 -23.0128 -15.9495
C 23.5483 29.9178 -6.11164
C 23.8773 31.05 -6.05857
C 33.5038 -2.41998 11.3204
C 34.1123 -1.55553 10.763
C -33.3433 -4.81897 -37.5133
C -33.8734 -5.41297 -36.5546
C 27.8861 -6.23319 -14.0831
C 27.1423 -7.10435 -13.935
C 28.8535 -5.31634 -14.3901
C 29.7103 -4.42024 -14.5967
C -1.76104 22.8841 -38.7018
C -1.82293 22.0043 -37.8569
H 26.4603 -7.951 -13.8085
C -6.7618 38.0052 36.433
C -6.18968 36.9082 36.608
C 15.9524 -2.64846 -27.7224
C 14.8294 -2.47274 -28.1114
C 39.6214 30.9996 -22.1223
C 39.3582 30.7266 -20.9674
C -27.8799 -1.39857 31.8279
C -27.3075 -2.0585 30.9511
C 2.21343 -36.2085 0.85605
C 2.0482 -36.7607 1.92481
C 36.7236 -27.1241 23.776
C 35.9662 -27.4685 24.6487
C 23.0469 20.9759 39.0777
C 22.9139 20.4541 37.9281
C 24.2022 31.8433 39.4794
C 24.0372 32.5248 38.5228
C -16.973 -4.28563 -8.02523
C -17.6293 -3.35566 -7.68556
C -35.913 5.89219 -24.8573
C -35.7763 5.06203 -23.9255
H 37.8252 -12.4802 36.3245
C 34.8116 26.259 9.47371
C 34.8425 25.8824 8.35194
C -8.51351 -23.3325 8.93318
C -9.10969 -24.3582 9.013
C -21.8489 17.9727 4.62092
C -21.8577 19.0699 4.06831
C 1.19885 40.0016 -4.96092
C 0.575725 -39.3397 -5.81206
C -0.543723 4.14584 21.5476
C 0.502764 3.62912 21.3408
C 15.4633 33.9683 -4.2835
C 14.7852 33.8125 -5.31677
C -38.9274 -28.4869 -21.4828
C -39.0203 -29.2906 -20.5953
C -7.80941 -9.85513 20.6651
C -6.90005 -10.7113 20.9519
C 10.2961 -29.7775 27.3071
C 10.0825 -30.9615 27.3531
63
Atoms. Timestep: 100000
C -7.47903 -2.11282 -8.93549
C -6.6106 -2.12215 -9.76971
H 24.5227 28.7105 -1.74164
C 1.37893 37.4745 -17.8649
C 1.27901 38.6368 -18.1321
C -39.8785 -2.27421 -34.7723
C -39.3981 -3.38372 -34.5543
C -30.4405 9.58134 -35.3422
C -30.9147 9.95876 -34.2864
C -29.5733 -21.9105 -16.1229
C -30.6881 -21.5101 -16.3165
C 24.0939 29.1829 -0.862147
C 23.5594 29.6537 0.0872423
C -39.0283 13.045 12.0223
C -38.159 12.2064 11.8678
C -38.8744 -4.51653 -34.3005
C -38.3982 -5.68459 -34.1999
C 31.8417 -4.72391 -8.70634
C 32.6829 -4.86931 -7.92654
C 30.9765 -4.45885 -9.74817
C 30.3017 -4.0757 -10.6572
C -4.61489 25.5123 -39.2517
C -4.94382 24.3605 -39.0475
H 33.4335 -4.94743 -7.1781
C -3.13199 28.2114 35.6946
C -1.9651 28.0735 36.0648
C 22.9746 0.146006 -30.8641
C 23.0713 1.0898 -30.115
C 36.2158 31.4517 -15.6429
C 36.2854 32.1077 -14.6444
C -33.9301 -1.91551 23.4606
C -33.263 -2.87888 23.6772
C 3.22718 -34.1563 -4.14079
C 2.9125 -33.2705 -4.87393
C 36.1641 -28.5227 16.1383
C 35.8456 -27.3943 15.8801
C 28.928 13.6919 -38.7869
C 28.4619 13.6893 -37.6171
C 19.5532 33.1954 32.8733
C 19.2944 32.3306 33.7041
C -14.9878 -10.2481 -4.75715
C -14.2928 -11.1082 -5.21132
C 38.1165 -7.35377 -28.0292
C 38.2092 -6.15199 -28.0145
H 3.42663 -30.5073 -18.4633
C 30.4119 23.1218 -2.83304
C 31.4821 23.534 -2.41763
C -17.0365 -14.7695 9.75005
C -17.4888 -14.6102 10.8745
C -19.941 20.8076 2.87912
C -19.6625 21.3934 1.8639
C 1.61243 -28.7168 -5.22367
C 2.37921 -28.442 -4.28462
C 8.04951 12.9394 15.3564
C 7.64723 13.1767 14.2188
C 23.2746 38.7881 -0.485396
C 24.3589 39.187 -0.996763
C 36.6061 -17.7231 -24.1427
C 37.2713 -18.0793 -23.1619
C -2.56285 -12.0947 24.987
C -1.37711 -11.8009 24.7408
C -2.53892 -29.3552 25.8218
C -2.31535 -28.2549 25.4138
63
Atoms. Timestep: 120000
C -5.65712 -3.10429 0.746719
C -5.92171 -2.43762 1.7293
H 26.1024 25.2119 5.5341
C 8.56903 36.4132 -24.9051
C 9.18224 36.7834 -25.8848
C 33.4148 -2.99012 -29.6216
C 34.1828 -3.39411 -30.4884
C -32.4645 -2.22247 -33.1861
C -31.6412 -2.40531 -32.2955
C -34.2735 -21.3007 -15.8043
C -33.6592 -20.4927 -16.4621
C 26.1912 24.2223 5.08216
C 26.363 23.0779 4.65111
C -30.7166 27.5159 12.5544
C -31.401 26.7182 13.1273
C 35.295 -3.70286 -31.1912
C 36.1628 -3.94593 -32.0072
C 34.8666 -2.74656 -4.48891
C 35.4242 -1.86327 -4.94472
C 34.2212 -3.87438 -3.98086
C 33.7683 -4.82072 -3.41948
C -6.68235 28.2342 38.9652
C -7.17927 27.2113 38.5992
H 35.9528 -0.989434 -5.42209
C 0.104973 18.2034 36.3205
C 0.964781 18.9786 36.5785
C 30.0667 3.99354 -33.1799
C 31.2012 3.62969 -32.9577
C 32.8632 32.1211 -8.88824
C 33.2138 33.2562 -8.70361
C -39.5055 -3.02281 15.185
C -39.5932 -3.09772 16.4422
C 2.65353 -26.4015 -11.7019
C 3.1867 -27.3751 -11.2089
C 35.2109 -28.5049 8.24424
C 36.1241 -28.7257 7.50444
C 33.8826 6.39426 -34.6171
C 34.7576 6.9694 -35.1945
C 14.3893 32.9217 27.8156
C 15.1449 33.7526 27.4323
C -11.6385 -17.856 -2.42903
C -12.365 -17.1007 -1.84508
C 32.2971 -18.3181 -29.4651
C 32.0511 -19.2698 -30.2335
H -30.6846 31.6162 6.53837
C 27.5118 20.5526 -14.5352
C 26.6851 20.6652 -13.5983
C -25.9242 -6.16113 11.6023
C -25.362 -5.06058 11.6783
C -18.0136 23.7785 0.977933
C -17.521 23.5377 -0.148171
C 4.05167 -22.239 -2.83942
C 4.30017 -21.0798 -3.21589
C 16.1175 21.9283 7.8955
C 15.1855 22.3758 8.47781
C 30.1463 -30.8142 3.02108
C 30.029 -31.3981 4.08822
C 32.5197 -7.15728 -28.4203
C 33.6155 -6.66837 -28.123
C 3.28203 -14.1394 29.132
C 3.45756 -13.0576 28.6388
C -14.8381 -26.8618 23.4765
C -15.0382 -27.6457 24.3632
63
Atoms. Timestep: 140000
C -2.70586 -5.62748 13.0022
C -1.87948 -4.75072 12.9813
H 28.6015 16.5085 10.8409
C 16.1396 35.5654 -32.5362
C 16.7719 34.7037 -33.1123
C 29.6202 1.83392 -29.0749
C 29.6448 2.93145 -28.5848
C -33.941 -14.2007 -30.4091
C -32.9275 -14.7023 -30.9071
C -38.2416 -19.7119 -16.2802
C -37.3966 -20.4472 -15.8124
C 28.6402 17.5279 10.4393
C 28.7593 18.6204 10.0165
C -23.0996 -38.7571 13.6502
C -23.931 -37.8778 13.7726
C 29.5997 4.19014 -28.2687
C 29.5918 5.41028 -27.9062
C 37.1353 -2.0054 0.378359
C 36.2645 -2.07547 -0.336914
C 38.355 -1.96564 1.21155
C 39.3156 -1.9836 1.98624
C -8.60103 30.8098 36.9045
C -9.11259 30.1788 35.9816
H 35.4162 -2.14612 -1.02129
C 3.44228 8.43149 37.3154
C 3.35169 9.61714 37.2517
C 31.2183 4.60147 -32.2028
C 32.0081 5.03859 -31.4077
C 29.6137 33.1778 -2.03701
C 30.0104 34.0254 -2.80289
C 34.8386 -4.21563 7.8837
C 34.1047 -3.23683 8.16364
C 3.06628 -20.106 -18.1057
C 2.39543 -19.145 -18.4131
C 39.7787 -29.4506 0.891451
C -39.7524 -28.5965 1.60274
C -33.1167 0.407352 -33.5618
C -33.4641 0.423557 -34.8008
C 10.612 34.2496 21.9567
C 9.56755 33.578 21.9115
C -9.73578 -23.9726 1.07978
C -8.96705 -24.6449 0.36575
C 25.9192 -30.5165 -30.367
C 26.1781 -30.373 -29.2132
H 15.6439 13.4264 32.3466
C 23.5227 18.1189 -25.0686
C 22.9429 17.6368 -26.0493
C -34.3057 3.5536 13.5366
C -33.8157 3.46332 12.4118
C -15.9385 26.7153 -1.26044
C -15.5091 25.7389 -1.84042
C 6.88263 -15.0622 -1.07375
C 5.92652 -15.17 -1.86299
C 23.133 31.4798 1.08201
C 23.8467 31.0927 2.03076
C 31.3051 -21.6208 6.74267
C 32.099 -21.1939 5.90883
C 26.8207 -7.83909 -33.7345
C 27.7056 -8.5122 -33.3048
C 9.29438 -15.4836 32.9693
C 8.17217 -15.0295 32.8803
C -27.5761 -25.8797 22.7775
C -27.4334 -25.5113 21.6512
63
Atoms. Timestep: 160000
C 2.04128 -7.06975 23.3136
C 3.00241 -6.40882 23.6175
H 31.806 13.0013 14.3313
C 24.1306 34.2077 39.447
C 24.0551 33.1118 39.9343
C 24.7072 14.6179 -27.4784
C 24.8132 13.5458 -27.9488
C -34.7317 -26.6151 -27.9616
C -34.9202 -26.7453 -29.1579
C 38.8738 -19.1354 -16.1022
C 37.7246 -19.3771 -15.8154
C 31.3767 12.5162 15.2437
C 30.858 11.9532 16.1702
C -16.3218 -23.9813 14.8842
C -15.5145 -23.3023 14.287
C 25.1618 12.2951 -28.3356
C 25.3211 11.1461 -28.7956
C -39.6158 -1.29148 6.30322
C 39.9785 -2.20749 6.86955
C -39.1656 -0.247829 5.58224
C -38.8212 0.719724 4.87839
C -10.6442 33.2343 34.6745
C -10.9503 33.339 33.4983
H 39.5354 -3.02973 7.46458
C 6.8294 -0.823249 38.7444
C 6.10685 0.107805 38.4579
C 30.8532 1.8545 -25.9186
C 29.9441 1.61782 -26.6758
C 35.6389 34.3708 3.9222
C 34.6615 33.7422 3.64517
C 29.1889 -4.55684 0.449402
C 28.896 -3.94978 -0.609256
C 2.18728 -11.8392 -25.2329
C 2.89306 -12.7772 -24.9961
C -34.2522 -28.6838 -4.36582
C -33.7176 -29.6045 -4.9621
C -19.1609 -5.33855 -34.0262
C -20.1536 -5.96801 -33.8476
C 4.84148 34.2756 16.0273
C 5.91306 34.7141 16.3757
C -6.30517 -31.4743 3.22057
C -7.05724 -30.9067 3.98756
C 19.933 37.4027 -29.3026
C 19.8215 38.2311 -30.1583
H -23.259 -9.68056 -33.026
C 18.7407 15.0155 -37.0214
C 19.9355 15.2371 -37.2535
C 37.7061 13.2605 14.4355
C 37.1991 12.1337 14.2016
C -13.7747 29.4146 -3.56548
C -13.5552 28.2162 -3.49553
C 8.72763 -7.95684 -0.119936
C 8.57211 -9.09027 0.325195
C 22.8465 -39.3942 -5.40644
C 22.7502 -38.698 -4.40045
C 32.2945 -11.8817 8.30795
C 31.1152 -11.9711 8.39546
C 20.8943 -9.63451 -38.6475
C 21.785 -10.2914 -38.1909
C 14.4182 -16.4454 36.7549
C 13.8559 -17.4086 37.2341
C 39.8826 -24.0827 19.903
C 39.7861 -24.1684 21.089
63
Atoms. Timestep: 180000
C 6.84597 -8.47384 33.6504
C 7.83668 -8.10815 34.2531
H 36.6483 9.40701 20.9926
C 32.079 32.2193 31.7114
C 31.3921 32.1485 32.6888
C 21.335 20.3193 -28.6956
C 20.8545 21.3106 -28.1665
C -35.6691 -39.1218 -26.3369
C -36.7684 -38.714 -26.5828
C 34.3058 -18.9051 -15.5096
C 34.5237 -17.9595 -16.2327
C 36.2036 8.79988 20.1694
C 35.6101 8.22556 19.2997
C -8.64898 -8.4448 15.4604
C -7.98177 -9.46585 15.4605
C 20.4672 22.2953 -27.501
C 20.0458 23.4201 -26.9845
C -36.2014 0.380547 11.552
C -35.2435 0.443757 12.181
C -37.337 0.325245 10.7659
C -38.3166 0.319548 9.98465
C -12.7487 35.6891 32.2026
C -12.7296 36.473 31.2533
H -34.3277 0.397558 12.7631
C 10.1083 -9.9467 -39.6732
C 9.04893 -9.35163 39.956
C 28.1355 -0.634485 -21.1379
C 29.0642 -0.538785 -20.3663
C -36.3022 34.5041 9.20588
C -35.6364 34.2796 10.1957
C 23.6228 -4.36125 -7.83489
C 24.215 -5.0516 -8.717
C 2.73124 -5.45661 -31.8897
C 1.96745 -4.5144 -32.0596
C -27.3999 -29.4337 -10.61
C -28.5571 -29.0959 -10.5488
C -6.10768 -12.4976 -34.2036
C -5.64454 -12.4338 -33.0464
C 1.18 35.1676 10.7791
C 0.142649 34.9849 10.1503
C -4.39299 -37.8357 6.91565
C -3.62508 -38.3187 6.05931
C 13.7761 26.677 -29.5664
C 13.6273 25.4622 -29.7747
H 13.6719 -17.5289 -25.4178
C 15.6409 12.2302 30.7122
C 15.2402 12.5153 31.8391
C 26.7812 19.7568 16.4365
C 26.2607 19.7918 17.5361
C -11.5744 31.9217 -5.85925
C -11.6348 30.8895 -5.16482
C 10.2715 -1.97111 1.36952
C 11.2771 -1.75759 1.96798
C 18.544 -28.9175 -10.5544
C 18.5921 -29.5853 -11.5994
C 31.2041 -2.29722 10.0372
C 32.2111 -2.57983 10.7211
C 14.9437 -11.5648 36.4557
C 15.8299 -12.2297 36.9151
C 19.0282 -18.149 -39.0153
C 20.1057 -18.7548 -38.8632
C 27.1391 -22.4676 19.3658
C 27.189 -22.6413 18.1871
63
Atoms. Timestep: 200000
C 13.3631 -13.3773 -34.9486
C 14.076 -13.5553 -34.005
H -39.206 4.63845 24.7867
C 39.6599 30.1784 24.513
C 39.1511 31.2271 24.8526
C 15.3366 32.0884 -26.501
C 15.9836 31.3093 -27.2528
C -37.3758 28.6134 -24.8644
C -37.8571 28.9881 -23.8407
C 30.0802 -17.2487 -16.0078
C 30.9526 -17.9622 -15.5587
C -38.902 5.28226 23.9279
C -38.6231 5.94397 22.9594
C -0.20425 6.00221 16.0404
C -1.16681 5.56466 16.6363
C 16.5474 30.3335 -27.9139
C 17.2146 29.5089 -28.5377
C -33.7344 2.06842 16.0267
C -33.3665 3.011 15.5057
C -34.2244 0.8876 16.7452
C -34.8026 0.00640717 17.3876
C -14.8662 38.3203 29.4865
C -14.5098 39.4506 29.2358
H -33.027 3.93058 15.0134
C 12.7834 -15.3743 38.1839
C 11.6352 -15.5282 37.7594
C 27.253 -2.96337 -14.8011
C 26.323 -2.87723 -15.5691
C -27.1912 34.2869 16.037
C -26.9232 35.1698 15.2408
C 18.5 -4.70674 -16.7594
C 19.0673 -5.61037 -16.2474
C 1.77698 2.82428 -38.9335
C 2.5387 1.90227 -38.7849
C -22.4645 -29.5915 -16.7551
C -21.4381 -29.1756 -16.2796
C 7.54847 -19.6148 -32.9407
C 8.35987 -18.9897 -33.6835
C -2.94949 32.8567 3.73619
C -2.26864 33.2421 4.6469
C -2.73087 37.9999 9.4116
C -2.84854 37.2439 10.3825
C 7.49672 14.1672 -30.1733
C 7.76953 14.3668 -28.9746
H -29.5347 -25.4591 -17.7464
C 11.9528 9.8487 20.0344
C 11.1055 9.36994 19.2604
C 14.7592 25.5513 20.0593
C 15.3535 26.6284 20.1762
C -9.3729 34.2572 -8.04985
C -9.70101 33.7528 -6.95139
C 12.4838 4.42231 3.57817
C 12.5959 5.41347 2.82097
C 14.3103 -19.7135 -17.789
C 14.3349 -19.1302 -16.7557
C 31.857 6.84262 12.9348
C 31.5638 7.32369 11.8929
C 7.81194 -13.743 34.3346
C 8.91125 -14.1944 34.6222
C 24.7691 -20.2648 -34.6479
C 25.2638 -19.2482 -35.1455
C 14.4554 -21.1641 16.47
C 14.442 -20.7915 17.6315
63
Atoms. Timestep: 220000
C 20.5116 -21.9096 -24.8669
C 20.4021 -22.7993 -24.0445
H -34.1533 1.3383 26.0797
C -33.1527 28.7637 17.6086
C -32.8921 29.7174 16.9141
C 13.0895 38.7251 -28.3472
C 12.2477 39.2877 -27.6918
C -39.4061 16.7656 -22.7236
C -38.5866 16.5865 -21.8205
C 27.1751 -16.5469 -15.9237
C 26.1604 -17.0313 -15.4692
C -33.679 2.13326 26.6529
C -33.1144 3.06614 27.1374
C 7.10453 19.7867 17.2535
C 6.60299 20.8743 17.1534
C 11.5135 40.0679 -26.9605
C 10.775 -39.4079 -26.0946
C -31.9198 2.76464 21.276
C -32.9354 2.77522 20.7631
C -30.7497 2.70217 22.1006
C -29.7991 2.74983 22.807
C -16.8696 -38.8702 26.8265
C -16.3543 -37.8219 27.2224
H -33.8891 2.79407 20.2911
C 10.7928 -16.0593 32.3557
C 9.87868 -16.7941 32.029
C 24.5054 -5.16924 -10.0679
C 25.4339 -5.29982 -9.30175
C -17.7835 35.4149 21.5765
C -18.7339 34.7064 21.4264
C 13.908 -5.79661 -25.2038
C 13.5331 -5.45381 -24.0439
C 2.40172 9.20485 34.2974
C 1.53583 10.0318 34.3907
C -15.9802 -28.9968 -22.0246
C -16.0334 -29.9712 -22.7561
C 22.2507 -25.4559 -32.3296
C 21.4723 -25.7511 -33.2241
C -4.43851 29.7511 -1.03178
C -4.91283 29.6929 -2.18347
C -2.88126 35.2639 12.6263
C -2.61473 34.1405 13.1121
C 1.75664 2.32372 -28.9607
C 1.58807 2.9104 -29.9803
H 7.94906 -33.6892 -9.91721
C 7.14239 6.86657 8.49588
C 8.18071 6.90398 7.84095
C 3.5671 32.5091 23.7823
C 3.90877 32.1406 22.6362
C -7.25364 36.4103 -9.9947
C -7.73764 36.7323 -8.93298
C 14.7828 11.7937 4.97359
C 13.735 11.4339 4.44112
C 10.189 -9.38222 -22.848
C 10.1198 -9.99182 -23.9422
C 32.1289 16.6848 14.0327
C 31.2974 16.282 14.8124
C 4.64778 -17.2025 37.0221
C 5.75814 -17.6692 37.2045
C 30.9452 -21.3164 -30.8443
C 29.8475 -20.7725 -30.9672
C 1.93809 -19.0081 15.7972
C 1.8529 -19.8343 14.8969
63
Atoms. Timestep: 240000
C 27.4119 -31.0547 -14.7821
C 26.6172 -31.9681 -14.7151
H -31.9872 1.77945 29.1364
C -25.8622 27.8941 10.3544
C -25.1353 27.6813 9.42051
C 6.17267 -30.9703 -25.8242
C 7.0963 -31.39 -26.5401
C 39.1393 4.87117 -19.9738
C -39.8741 4.38678 -20.436
C 23.1396 -16.4116 -15.3155
C 22.5478 -15.5444 -15.9049
C -31.2459 1.01698 28.8831
C -30.3991 0.230256 28.6289
C 13.8692 34.5773 18.3544
C 14.8306 34.9854 17.7684
C 8.09241 -31.7023 -27.3733
C 8.91941 -32.0587 -28.252
C -27.0267 2.97974 28.1332
C -26.279 2.27207 28.605
C -27.8599 3.88528 27.4078
C -28.6088 4.49665 26.6469
C -18.77 -35.9482 24.2575
C -18.2692 -35.2947 25.118
H -25.4554 1.619 28.9647
C 7.06309 -16.8096 26.8699
C 6.3699 -17.8355 26.6238
C 23.6236 -7.58385 -3.83928
C 22.702 -7.48412 -4.60025
C -9.76363 35.5355 26.859
C -9.03666 35.3612 27.7996
C 11.4814 -5.67815 -33.8163
C 10.4863 -4.96356 -33.9951
C 1.30207 17.1387 27.8149
C 2.25979 16.5153 27.3666
C -9.58128 -29.8728 -28.3557
C -10.6194 -29.2947 -28.0959
C 36.1574 -31.2377 -32.4313
C 35.4818 -31.8314 -31.5549
C -6.76242 26.6179 -7.95379
C -6.69565 26.2164 -6.78195
C -2.98424 32.3448 15.9048
C -2.42892 31.2551 15.7362
C -4.29971 -8.49394 -29.7841
C -4.1996 -9.42255 -28.9509
H -34.2806 38.0446 -2.19019
C 6.44042 6.80436 -4.25503
C 5.58738 6.13986 -3.74522
C -7.26101 38.9284 26.0832
C -7.99589 38.0487 26.5029
C -5.26526 38.5747 -11.6395
C -5.67073 39.675 -11.1851
C 15.9766 18.721 5.82971
C 15.9463 17.8055 6.59069
C 3.33594 -0.817392 -28.7486
C 4.10063 -0.747679 -27.7824
C 31.1434 25.9132 16.1797
C 32.2884 25.7339 16.6571
C 3.27864 -20.6724 39.4078
C 4.3658 -21.2358 39.4615
C 36.1295 -21.9011 -27.1708
C 35.3475 -22.7554 -26.7142
C -10.6676 -18.4479 13.4826
C -10.4873 -17.3013 13.8259
63
Atoms. Timestep: 260000
C 34.0505 39.4272 -4.62883
C 33.1472 39.1617 -5.37531
H -27.2036 2.03222 27.5917
C -18.1305 26.895 2.54387
C -17.7585 25.7628 2.42334
C 4.68822 -22.7999 -27.8749
C 3.70028 -22.7196 -27.1156
C 38.3347 -7.39448 -17.5249
C 38.1772 -7.53962 -18.7337
C 18.444 -15.3092 -15.3633
C 19.5644 -15.0181 -15.684
C -26.955 2.90322 28.2686
C -26.7674 3.87399 29.0224
C 21.6246 -30.1562 18.8705
C 22.1284 -31.262 18.9752
C 2.68884 -22.6354 -26.3376
C 1.78822 -22.6176 -25.5528
C -24.6766 2.02587 34.6914
C -25.61 2.66762 34.5767
C -23.5267 1.23186 34.9358
C -22.4453 0.640885 35.1439
C -20.5704 -32.9174 21.7923
C -20.2107 -32.8753 22.9586
H -26.4585 3.27361 34.4911
C 3.23494 -17.6137 21.3359
C 2.92506 -18.8319 21.2291
C 20.8887 -9.78725 0.88783
C 21.8085 -9.89828 1.6471
C -2.07241 31.9161 34.6074
C -3.02239 31.4818 34.0027
C 9.17623 -4.31016 37.0778
C 8.78182 -4.19477 35.9672
C 2.05332 23.8868 20.4487
C 1.12719 24.2483 21.1687
C -4.69523 -29.8698 -34.3083
C -3.64458 -29.498 -33.8615
C -30.6157 -37.686 -31.5866
C -29.7115 -37.287 -30.8225
C -8.92421 22.7522 -12.6615
C -8.65725 23.4456 -13.6414
C -2.99459 29.2776 19.1285
C -2.3313 28.4888 18.4417
C -10.1962 -21.169 -29.0415
C -10.1924 -19.9915 -29.486
H 3.32975 29.6932 5.53653
C 7.67584 8.73138 -15.1765
C 7.9933 9.85934 -15.3806
C -17.2737 -31.3658 28.7674
C -16.8136 -30.9811 27.6952
C -3.38504 -38.8764 -13.191
C -3.48016 -37.7417 -13.5438
C 17.1455 24.7278 7.47907
C 18.1961 25.1512 7.95928
C -3.35805 6.9655 -32.4883
C -3.61847 7.82455 -33.319
C 31.7156 34.9314 18.993
C 31.7216 35.4717 17.8517
C 1.91187 -24.1732 -38.2176
C 2.96501 -24.7985 -38.2582
C -39.2633 -23.143 -23.1355
C -38.536 -24.0979 -22.7941
C -22.9911 -15.735 11.8733
C -23.2108 -16.9085 12.0359
63
Atoms. Timestep: 280000
C -39.6022 29.664 5.36112
C 40.1298 30.3115 4.36643
H -20.431 6.66705 33.8678
C -10.0902 25.2354 -5.43267
C -10.5055 24.4691 -4.58911
C -2.70098 -14.0792 -25.35
C -1.69274 -13.787 -26.0013
C 37.4154 -19.9129 -15.885
C 36.3094 -19.5095 -16.1717
C 15.1816 -13.8573 -15.8001
C 15.0537 -14.8212 -15.0718
C -21.0287 6.81228 32.9504
C -21.5916 7.02207 31.9204
C 30.0157 -15.8891 19.5051
C 28.9747 -16.1548 20.0846
C -0.685066 -13.6667 -26.8352
C 0.315928 -13.458 -27.572
C -21.0153 -0.850808 -40.0729
C -20.1207 -1.49315 -39.7392
C -22.1653 -0.0478868 39.7461
C -23.2024 0.575972 39.8137
C -22.0288 -29.6809 19.9217
C -22.0282 -30.4352 20.88
H -19.3475 -2.18763 -39.4003
C -0.766243 -18.5558 15.6891
C -0.435784 -19.7125 15.8135
C 19.9641 -12.308 7.19372
C 19.0603 -12.0516 6.45002
C 3.98282 27.5119 -38.6336
C 4.72783 28.4459 -38.6957
C 6.74942 -2.93272 27.3829
C 7.14982 -3.40928 26.2839
C 0.413197 32.4868 14.0957
C 1.28278 31.6711 13.8975
C 0.796225 -31.5913 -39.9355
C 0.536138 -32.5252 39.3355
C -16.032 36.3361 -29.8299
C -15.9185 36.6412 -30.9827
C -10.6207 20.1736 -19.3728
C -11.1346 19.3065 -18.639
C -2.24986 24.905 22.2157
C -1.88915 25.5921 21.2504
C -16.0978 -31.8241 -28.8293
C -16.3258 -32.8651 -29.4882
H -39.5789 21.2396 13.3576
C 9.55567 12.7503 -26.6302
C 9.77189 11.5263 -26.7365
C -26.7448 -20.9602 29.2522
C -26.8474 -20.7676 30.4638
C -1.46386 -36.1379 -14.8901
C -1.28072 -35.2851 -15.8026
C 19.4368 31.2602 9.65051
C 19.3653 32.1349 8.84273
C -10.5533 16.2582 -37.6292
C -11.0128 15.0872 -37.5682
C 32.2108 -35.1354 20.1333
C 31.232 -35.4758 20.7685
C 1.63122 -25.6692 -35.7855
C 2.77813 -25.9067 -35.4098
C -33.9636 -25.2412 -18.7495
C -32.9806 -24.6158 -19.1272
C -35.8921 -15.3226 10.4162
C -35.6635 -14.1769 10.052
63
Atoms. Timestep: 300000
C -33.3904 20.2098 14.8882
C -32.7879 21.2022 14.5181
H -16.2727 11.8428 36.0905
C -2.3092 23.131 -12.9012
C -3.03415 23.6282 -12.0693
C -4.1984 -4.1078 -27.2267
C -4.98928 -4.67042 -26.4205
C 35.7434 -32.1215 -14.4415
C 35.202 -31.7233 -13.4245
C 11.7733 -13.7751 -15.2063
C 10.7099 -13.2591 -15.4907
C -15.8332 10.8571 36.4151
C -15.4181 9.76627 36.655
C 37.236 -1.9559 20.778
C 36.9509 -0.792562 20.551
C -6.07632 -5.0936 -25.8201
C -7.07996 -5.43353 -25.1718
C -19.5468 -2.2051 -35.1566
C -20.6019 -1.71436 -35.2241
C -18.4564 -2.93626 -34.9478
C -17.4628 -3.64173 -34.7216
C -23.4871 -26.6517 18.3119
C -23.8262 -27.7833 18.5937
H -21.6234 -1.38161 -35.1919
C -4.70136 -19.6033 10.0779
C -3.84293 -20.4827 10.392
C 17.2405 -14.326 12.0001
C 18.121 -14.6952 12.7227
C 11.3295 24.7579 -32.0009
C 11.1496 23.7798 -31.3056
C 4.44997 -1.71325 17.3178
C 5.40136 -2.47164 17.023
C 0.0711689 39.3789 7.94324
C -0.152829 -39.625 7.33067
C 3.5418 -38.2375 33.5342
C 3.48112 -37.065 33.7519
C -1.31399 30.8162 -29.7206
C -2.33596 30.1438 -29.4999
C -13.3022 15.9348 -24.6595
C -12.6158 16.8456 -25.0298
C -1.0611 21.5169 23.7706
C -1.59714 22.1142 24.7072
C -22.3463 35.8434 -29.6466
C -22.0799 36.002 -28.4614
H -2.37228 12.8086 21.1577
C 11.857 14.5413 -38.266
C 11.1192 15.4059 -37.849
C -36.3878 -10.2403 31.9478
C -36.6677 -10.9437 30.9706
C 0.483798 -33.2106 -16.7679
C 0.881175 -33.0314 -17.8722
C 21.6352 38.7008 10.9523
C 20.6182 38.1741 10.5876
C -18.4498 23.6701 37.3505
C -17.6666 24.1862 38.0874
C 31.1334 -25.7623 22.2624
C 32.315 -25.9143 22.6854
C 3.76466 -23.4931 -33.5361
C 4.13407 -24.2299 -32.6761
C -27.7182 -26.7151 -14.7477
C -28.4001 -25.7509 -15.0979
C 31.6912 -12.6733 8.20554
C 31.4675 -13.6909 8.83096
63
Atoms. Timestep: 320000
C -26.9656 11.2329 24.2098
C -26.0234 11.7618 24.7202
H -10.4175 12.6417 39.371
C 4.99657 21.3312 -19.8373
C 4.79233 22.5059 -19.9642
C -11.3384 3.04039 -25.0559
C -10.3842 3.63236 -25.617
C 33.7075 36.0385 -12.3286
C 34.4803 35.8865 -11.3797
C 7.01398 -13.0578 -14.9614
C 7.77795 -12.3452 -15.5622
C -10.195 13.4453 -39.884
C -9.92189 14.2775 -39.0014
C -35.8987 13.1032 21.7985
C -34.8369 13.2125 21.2574
C -9.44174 4.35718 -26.1276
C -8.6223 5.06932 -26.7281
C -16.0524 -5.14224 -29.9496
C -15.0912 -5.7305 -29.8894
C -17.1757 -4.25122 -30.0674
C -18.2155 -3.51865 -30.1986
C -25.0201 -23.8977 16.7404
C -25.5239 -24.9009 16.2996
H -14.1033 -6.15923 -29.8492
C -8.46695 -20.7479 4.56144
C -7.36179 -21.1414 4.96255
C 16.3052 -17.0153 18.2194
C 15.4222 -16.6307 17.4951
C 18.2988 20.3141 -24.2086
C 17.8391 20.8625 -25.186
C 2.4743 -0.799896 6.88233
C 3.17437 -1.17781 7.79084
C -0.694176 -32.0851 0.839959
C -1.15113 -32.6877 1.81482
C 6.12426 37.3138 27.3987
C 6.54446 36.2861 27.869
C 11.9775 24.4837 -29.3626
C 12.4514 24.553 -28.2778
C -14.6026 13.5088 -30.5764
C -15.4453 12.6247 -30.6983
C -0.677659 19.0035 26.7159
C -0.511458 17.8157 26.7341
C -28.0856 23.9481 -28.4369
C -28.2487 24.6167 -29.4632
H 35.1652 4.45115 28.8819
C 12.767 17.8697 30.9668
C 13.8291 17.7035 30.3488
C 33.5141 -0.910227 32.8694
C 34.1204 0.108365 33.2262
C 2.4693 -30.2327 -18.8048
C 2.97287 -30.869 -19.7516
C 22.7426 -34.4467 11.8361
C 22.9349 -35.3047 12.7265
C -24.9969 31.8848 33.5736
C -25.5554 32.3524 32.5733
C 31.8088 -16.7031 25.0326
C 31.6451 -16.1878 23.9295
C 5.9839 -21.5819 -31.0173
C 5.3767 -22.3187 -30.251
C -22.1146 -27.3166 -11.0917
C -23.2631 -27.7379 -10.7859
C 18.94 -11.9798 7.30202
C 19.1322 -11.2737 6.32978
63
Atoms. Timestep: 340000
C -20.1272 2.41158 33.7852
C -19.5821 2.03764 34.8041
H -3.60083 16.6264 -34.2618
C 12.2372 20.1875 -26.8943
C 12.7894 20.707 -27.8416
C -13.1962 14.2485 -26.2812
C -13.9138 13.4319 -25.7778
C 32.1837 24.0132 -9.55065
C 33.2272 23.5128 -9.97106
C 3.22808 -11.4405 -15.4737