84
Atoms. Timestep: 0
C -12.4987 -10.1298 -3.83867
C -13.412 -9.34892 -3.94307
H -27.0095 -16.8859 0.239631
C 2.15341 5.69165 3.15232
C 0.955226 5.71509 3.46378
C 9.8677 13.8129 -25.7172
C 9.35695 14.409 -26.7004
C 15.7532 32.4446 -35.5491
C 15.716 32.8898 -36.6784
C -38.9831 9.8051 26.8096
C -37.8791 10.3562 26.7138
C -27.0456 -17.956 0.632364
C -27.0916 -19.1014 0.968809
C -31.585 26.5358 32.6048
C -32.6095 27.0512 32.2921
C 8.77856 14.8999 -27.7002
C 8.30831 15.5447 -28.6189
C -28.0755 4.91488 7.26599
C -28.909 4.48411 7.88292
C -27.0384 5.58966 6.46534
C -26.1714 6.16076 5.81558
C 17.8087 23.2788 -3.35185
C 16.7246 23.5305 -3.85419
H -29.706 4.01282 8.46019
C 10.646 -12.2115 -11.9956
C 11.4061 -11.97 -11.1088
C 5.80243 3.66731 -0.217351
C 5.2667 4.17039 -1.15677
C -0.38474 17.9433 -6.31681
C 0.513063 17.1067 -6.26409
C 31.2766 -22.1664 33.9029
C 31.796 -21.212 33.2455
C -36.258 30.1196 4.98262
C -36.7955 30.842 4.18109
C -29.8532 35.6911 9.49286
C -29.4547 36.8388 9.52456
C 11.4336 24.8373 -6.97139
C 11.8715 24.1667 -6.0473
C 10.8008 25.4286 -7.96665
C 10.1516 25.9714 -8.83371
C 4.32422 5.24737 -3.20892
C 4.84252 4.76407 -2.19885
C -16.2981 -37.6427 8.27227
C -16.3794 -38.9084 8.3773
H -16.2879 -36.5725 8.05926
C -17.4831 9.24951 23.3239
C -17.5018 9.54199 24.4956
C -25.1565 37.2868 35.2724
C -25.2309 36.5764 36.2441
C -24.7153 -6.19321 4.41849
C -24.6374 -7.33353 3.99603
C -28.2432 1.74544 18.4986
C -28.7557 1.04034 17.6552
C 21.7024 10.2337 -36.9051
C 22.5648 11.0811 -37.0174
C 28.7376 -4.22776 -11.0077
C 28.25 -4.6304 -9.97982
C 3.28342 -22.4053 0.402819
C 3.35315 -21.8131 -0.632816
C -27.7887 -25.5497 9.34381
C -26.6458 -25.26 8.95059
C 19.6732 36.3795 -2.71333
C 19.584 37.5989 -2.46575
C -8.43081 -33.037 8.67419
C -8.61643 -34.015 8.0113
H 4.11869 16.9907 8.75833
C -28.2566 35.9106 -24.8321
C -29.458 35.8661 -24.9421
C 19.7299 5.3896 0.0235835
C 19.896 6.52939 0.308471
C -29.9651 8.45764 12.069
C -30.4005 7.53721 12.7703
C -7.65311 12.6862 -7.11171
C -8.71725 12.725 -6.47614
C 34.2981 -20.1317 24.7203
C 33.5534 -20.9488 25.33
C -22.704 25.1651 -19.0297
C -23.5594 25.3639 -19.9132
C -22.6655 8.15943 -8.93968
C -23.8284 8.2041 -9.27831
C -29.5134 -4.27765 4.63108
C -28.2853 -4.57049 4.54485
C -20.4358 35.9964 33.2901
C -21.2681 35.2694 33.766
84
Atoms. Timestep: 20000
C -12.0155 -12.9613 6.26015
C -13.0337 -12.5281 5.7806
H -29.8427 -15.2073 6.90134
C 0.705472 5.72433 -3.16743
C 1.86163 5.38236 -3.43762
C 1.46299 13.2699 -23.2177
C 1.2072 13.7077 -24.3344
C 14.358 18.8095 -35.6424
C 14.0167 18.7472 -34.4868
C 36.6447 10.9631 24.9131
C 36.8203 11.8131 25.7796
C -29.0864 -15.8256 7.42533
C -28.2335 -16.4665 7.97752
C -24.9622 -38.3235 32.2403
C -25.2076 -37.7026 31.2238
C 0.84683 13.9923 -25.5643
C 0.593254 14.5022 -26.6383
C -23.654 5.56602 11.7988
C -22.603 5.33301 11.4387
C -25.0192 5.78003 12.1128
C -26.2224 5.98685 12.2316
C 11.4602 26.3683 -4.75426
C 12.3823 26.0271 -4.05967
H -21.6704 5.07297 11.0289
C 6.20733 -15.1559 -13.3939
C 5.3004 -14.8131 -14.131
C 7.25433 -2.21058 -0.961476
C 6.94089 -1.21207 -0.350441
C -2.52912 19.3117 3.07813
C -1.60952 18.4916 3.0868
C 27.1836 -18.8494 25.1912
C 26.6136 -19.3535 26.1267
C -33.7345 33.5329 0.493485
C -33.0579 32.6321 0.0422008
C -30.5252 34.9546 1.26834
C -29.9581 34.0076 1.73939
C 12.3243 21.7962 -6.23995
C 11.2829 21.4716 -6.79231
C 13.468 22.1544 -5.83976
C 14.5714 22.3467 -5.33501
C 6.29762 0.950693 0.728373
C 6.58409 -0.0834484 0.19784
C -24.1519 28.1068 5.18504
C -24.4273 28.7225 4.19943
H -23.9525 27.4706 6.08877
C -21.3215 9.63136 14.6968
C -21.9364 9.16436 13.7838
C -35.3928 -32.5297 38.9462
C -34.7992 -33.5912 39.0057
C -24.1902 -2.55909 3.25858
C -23.7997 -3.59062 3.7208
C -22.6737 -7.62709 25.5677
C -23.5965 -7.5361 26.3462
C 38.2901 15.7911 39.3719
C 37.5196 16.5056 39.958
C 39.1982 -1.78067 -4.96032
C 39.6598 -1.32883 -5.97563
C -1.12817 -10.6551 -3.12592
C -0.376939 -10.0978 -3.9222
C -21.9449 -26.934 15.0829
C -21.7005 -25.731 15.1701
C 6.25813 38.6007 -2.04689
C 5.97232 39.7464 -2.51601
C -3.12226 -35.9838 12.143
C -2.9169 -36.986 11.4383
H -20.2539 20.4241 -4.91557
C -27.6687 -30.5522 -28.8402
C -26.7657 -30.9842 -29.5133
C 14.8369 6.5758 0.422674
C 15.3828 6.38658 -0.67467
C -35.8404 12.6273 6.59996
C -36.0798 11.4383 6.78563
C -11.3065 5.44306 -3.88354
C -10.253 6.07128 -4.11116
C -36.7403 -27.3799 16.827
C -37.8547 -27.8421 16.8159
C -12.6706 14.8474 -17.8519
C -11.8197 14.6625 -16.9738
C -23.9443 5.96878 -15.1027
C -23.1727 5.24658 -15.663
C -32.2479 5.17175 5.97383
C -31.5135 6.11162 6.0531
C -24.2288 31.7267 31.6942
C -24.2216 31.4694 32.8818
84
Atoms. Timestep: 40000
C -11.6168 -15.7885 16.3405
C -12.5675 -15.7354 15.6008
H -31.905 -14.0861 14.152
C -3.07789 0.713936 -6.33379
C -3.91821 0.737818 -5.4946
C -7.03255 12.7796 -20.7922
C -7.09708 13.0136 -22.0276
C 12.3299 4.9713 -33.5151
C 12.9381 4.69817 -34.5075
C 32.378 12.6649 23.5514
C 31.376 12.7363 24.2995
C -30.84 -13.9015 14.4469
C -29.7408 -13.5591 14.7648
C -17.9665 -23.1427 31.5544
C -17.2746 -22.8746 30.5794
C -7.02307 13.1452 -23.3267
C -7.07163 13.3173 -24.5779
C -25.0052 -0.201545 9.58905
C -24.8673 -1.13941 10.1926
C -25.4607 0.957559 8.76153
C -25.9414 1.88579 8.14055
C 9.28929 20.6283 -5.95099
C 8.20478 21.1082 -6.24402
H -24.7912 -2.06616 10.7306
C 0.0534747 -17.5078 -16.1966
C 0.868261 -18.2715 -15.7662
C 5.6476 -6.36147 1.74709
C 4.42702 -6.29201 1.93202
C -4.66335 20.6765 12.501
C -3.76044 19.8912 12.485
C 21.9961 -16.3922 18.2467
C 22.4892 -16.6148 17.178
C -36.1282 31.4908 -6.9094
C -36.2561 31.7345 -5.72845
C -24.3932 37.1005 -4.14103
C -25.3822 36.4371 -4.4091
C 14.0494 23.2559 -4.43537
C 14.84 23.9342 -5.09896
C 13.2765 22.4524 -3.91433
C 12.5145 21.7084 -3.35737
C 1.97162 -5.88434 2.40654
C 3.14589 -6.0857 2.19568
C -32.4485 14.6042 0.726872
C -32.0209 15.2463 1.77088
H -33.0108 14.3515 -0.203985
C -17.5677 20.9112 19.6747
C -16.9099 21.3699 20.6054
C 34.6525 -22.8595 -37.34
C 35.338 -23.1999 -38.2819
C -23.7521 0.938517 2.37877
C -23.1777 0.572307 3.43296
C -18.1563 -16.9321 33.5692
C -17.343 -16.2517 34.1664
C -25.9363 22.1666 36.2966
C -26.5871 21.1557 36.2588
C -29.3565 1.55393 -0.93493
C -29.8261 1.10781 0.0915662
C -5.26146 0.976589 -10.7668
C -5.11224 -0.216039 -11.0681
C -15.9387 -27.6041 20.8995
C -16.875 -26.9237 21.3594
C -7.26028 -38.952 -1.45394
C -7.64253 -38.315 -2.49034
C 2.26516 -39.003 15.5798
C 2.74713 -39.9079 14.9245
H 35.2936 23.8706 -18.6596
C -25.5496 -17.6944 -34.0058
C -25.5917 -17.05 -32.9608
C 10.6128 7.54054 -0.553547
C 10.1636 6.46931 -0.284802
C 38.6982 16.248 1.16099
C 38.7539 15.0618 0.77926
C -13.0598 -0.711644 -1.06978
C -13.7064 -1.72649 -1.30889
C -27.9737 -34.7366 8.8815
C -28.9986 -34.6826 8.28965
C -0.890572 4.16078 -14.917
C -1.73519 4.25527 -15.7869
C -24.0469 2.67537 -22.1348
C -23.6957 3.37153 -21.2282
C -34.7683 15.4612 7.26365
C -35.2421 16.5475 7.40554
C -28.4981 27.5723 30.6667
C -27.6395 28.0539 31.3464
84
Atoms. Timestep: 60000
C -11.2888 -18.6121 26.3651
C -12.0306 -18.946 25.4763
H -32.7675 -12.8122 21.6289
C -5.03658 -4.77357 -1.5091
C -4.6667 -4.77225 -0.341897
C -15.5657 12.3881 -18.5937
C -15.2613 12.2247 -19.7733
C 11.4817 -9.39619 -33.3131
C 10.6797 -8.8206 -32.6028
C 27.4578 14.4312 22.6984
C 26.5857 13.5951 22.3107
C -32.2759 -11.8315 21.5797
C -31.6664 -10.8105 21.4214
C -11.0258 -7.16179 33.0052
C -9.85335 -7.43328 32.7092
C -14.9309 12.1739 -21.0476
C -14.7203 12.1761 -22.2253
C -25.9655 -4.03983 4.90093
C -26.9097 -4.19921 5.51386
C -24.7112 -3.83358 4.25844
C -23.5601 -3.73852 3.88563
C 14.8636 16.123 -1.95015
C 14.0758 15.9681 -2.84879
H -27.8778 -4.30577 6.07759
C -4.52694 -21.3271 -18.1646
C -5.13696 -20.2623 -18.236
C -1.38769 -6.49658 1.9409
C -0.803375 -6.62824 0.892058
C -6.81793 22.0585 21.9245
C -5.89086 21.2734 21.882
C 17.7049 -14.3566 9.35346
C 17.4688 -13.4547 10.1786
C -38.4568 29.9633 -12.3869
C -39.0063 30.5559 -13.2705
C -19.5641 38.4208 -9.91036
C -20.0162 39.459 -10.35
C 9.43762 23.7501 -5.27444
C 8.36072 24.0074 -5.86353
C 10.5322 23.3005 -4.76274
C 11.59 22.8619 -4.28162
C 0.375911 -6.86572 -1.27942
C -0.207125 -6.80992 -0.225647
C 39.6912 1.88339 -1.80952
C 39.464 0.792415 -2.40389
H -40.0395 2.94057 -1.57093
C -12.544 33.1012 26.4961
C -13.1757 32.6259 25.5605
C 25.0525 -13.3603 -34.1193
C 25.121 -12.6381 -35.0766
C -19.3437 3.9067 9.95034
C -20.0563 2.9442 9.95952
C -12.5181 -26.2138 39.7194
C -11.6443 -26.4044 38.9265
C -10.9243 27.3739 33.167
C -9.9444 26.9929 32.5962
C -24.1694 3.73915 0.736024
C -23.4102 2.79206 0.861246
C -8.87788 9.24837 -19.7393
C -7.78049 9.82219 -19.6881
C -10.4714 -27.864 26.9832
C -11.5111 -28.5264 27.281
C -20.9051 -36.6094 -0.974423
C -21.2901 -36.5759 -2.11118
C 7.6495 37.9645 19.0074
C 8.41388 37.1835 18.4195
H 10.8419 27.317 -32.4032
C -23.5079 -3.75958 -37.4243
C -24.3405 -4.1936 -38.1552
C 5.51546 6.92033 -1.17178
C 5.24906 7.55326 -0.199642
C 33.4511 19.5681 -4.22937
C 33.7855 18.7334 -5.05355
C -15.9916 -8.73092 1.29981
C -15.9793 -7.65957 1.93779
C -19.381 38.0155 0.720302
C -19.8095 38.6722 -0.261228
C 8.9284 -6.41718 -13.5633
C 9.78316 -6.41763 -12.6747
C -23.6118 0.438297 -27.7895
C -24.7564 0.440321 -28.1703
C -37.5413 26.5733 8.2304
C -38.8129 26.4659 8.27138
C -32.3189 23.6571 29.9985
C -31.4944 24.3802 29.4698
84
Atoms. Timestep: 80000
C -11.0156 -21.4642 36.3207
C -11.436 -22.1376 35.4153
H -33.2285 -10.4301 29.1435
C -6.18926 -0.982911 -2.14413
C -6.41105 0.229438 -2.07039
C -23.6861 11.8137 -16.4752
C -23.1557 11.4377 -17.5414
C 9.09668 -22.657 -31.7492
C 9.95895 -23.4387 -32.0608
C 21.9378 15.624 21.5821
C 22.3976 15.0267 20.5859
C -33.4944 -9.45346 28.6619
C -33.8421 -8.46438 28.1217
C -3.77682 8.72401 35.091
C -2.91796 8.06064 35.6576
C -22.6027 11.1884 -18.6811
C -21.9955 10.8162 -19.6866
C -24.9757 -6.71666 -0.888678
C -25.3688 -5.81134 -1.45861
C -24.5234 -7.85397 -0.129267
C -24.0766 -8.74153 0.527916
C 20.4654 11.3365 2.00716
C 20.9979 11.3505 3.09824
H -25.7182 -4.93284 -1.93804
C -10.2622 -23.1306 -20.269
C -9.98459 -24.2674 -20.5683
C -3.5268 -7.06195 1.15629
C -2.29593 -6.98287 1.03279
C -8.97054 23.4369 31.3481
C -8.02211 22.6586 31.274
C 12.9709 -10.698 1.98536
C 12.8936 -11.9189 1.65816
C 38.3505 29.3682 -19.2609
C 39.109 28.4456 -19.4127
C -15.2177 -39.1301 -16.1498
C -14.1692 -38.647 -15.8144
C 6.16265 24.2377 -5.90104
C 6.49846 24.4073 -4.69846
C 5.83754 23.8938 -7.10257
C 5.5841 23.7103 -8.36587
C 0.226284 -6.7749 1.07448
C -0.99672 -6.88125 1.05226
C 31.3499 -12.6273 -5.42118
C 31.5785 -11.4222 -5.26054
H 31.1852 -13.7113 -5.74812
C -8.77932 -35.6628 31.4465
C -8.18298 -35.1676 32.385
C 15.4896 -3.49373 -31.3888
C 14.8722 -2.44906 -31.3829
C -14.5961 5.35015 19.5625
C -14.9001 4.1468 19.6588
C -6.01294 -35.6009 -35.6424
C -6.64172 -36.4125 -36.2587
C 5.2185 32.1378 29.3747
C 5.55738 33.2729 29.5955
C -20.934 4.54408 1.05298
C -19.9252 4.40827 0.437053
C -11.5778 18.5754 -28.7109
C -12.5627 19.2194 -28.4799
C -5.6015 -28.5214 33.2319
C -5.55723 -29.7236 33.0343
C -34.7382 -36.1646 0.360801
C -34.9842 -36.7817 -0.637055
C 13.0798 34.8904 22.4019
C 14.0318 34.3182 21.946
H -13.6033 30.7626 33.8564
C -22.892 9.42811 37.9085
C -21.6647 9.40264 37.9039
C -1.15555 6.65586 1.76419
C -1.47708 6.49385 0.579418
C 28.2481 22.762 -9.72807
C 28.7757 22.5293 -10.7751
C -18.901 -14.8303 4.80514
C -18.2838 -15.5009 4.04719
C -11.0302 32.9847 -9.33356
C -10.1423 33.6532 -8.86924
C 20.4032 -16.9954 -10.437
C 19.5672 -17.0953 -11.2989
C -24.9125 -1.79126 -34.0164
C -24.0807 -2.49676 -34.5393
C 38.7903 37.6305 9.22532
C 38.5154 36.4315 9.1033
C -35.703 20.1222 29.0572
C -35.7824 20.3266 27.8686
84
Atoms. Timestep: 100000
C -10.7627 -24.3802 -33.7755
C -10.8151 -25.2838 -34.5689
H -33.8742 -6.78777 36.0383
C -6.51115 -0.163936 -0.419588
C -6.29568 -0.131427 -1.63459
C -31.8037 11.1328 -14.6132
C -30.9404 10.6944 -15.3246
C 8.37792 -37.4435 -30.802
C 7.56778 -36.5686 -30.8992
C 16.7344 16.3875 19.7508
C 17.88 16.8911 19.5724
C -34.8415 -6.7325 35.5911
C -35.8785 -6.56026 35.0463
C 3.76583 24.4095 37.3707
C 3.74276 23.7969 38.4188
C -30.1207 10.1747 -16.1724
C -29.4663 9.53894 -17.0161
C -23.5543 -10.4828 -6.0121
C -22.5014 -10.2927 -6.39489
C -24.8971 -10.6462 -5.45214
C -25.9426 -10.6402 -4.89114
C 27.1223 6.57308 8.10595
C 26.8817 6.69755 6.91697
H -21.5109 -10.0552 -6.8215
C -15.4567 -27.1224 -22.937
C -15.3871 -26.0919 -22.3428
C -2.17081 -5.99203 -2.75551
C -2.60122 -6.049 -1.63047
C -11.124 24.8234 -39.21
C -10.1977 24.0634 -39.2951
C 8.07702 -9.2518 -5.96059
C 8.46588 -8.16379 -6.30567
C 36.3405 27.3278 -26.3904
C 36.0348 27.7769 -25.3168
C -9.72564 -36.1644 -22.0302
C -9.45411 -37.2639 -21.6536
C 2.39097 24.1848 -8.31067
C 2.80846 23.3019 -9.01315
C 1.81277 25.1204 -7.60003
C 1.21171 25.9741 -7.03749
C -3.64833 -6.66976 0.561119
C -3.13794 -6.33971 -0.474596
C 23.0241 -24.4625 -8.41266
C 23.0308 -25.4402 -7.65875
H 22.8919 -23.512 -9.00372
C -6.07752 -24.7488 37.3175
C -5.84588 -25.7396 36.6493
C 5.59482 6.93296 -28.6596
C 4.92869 7.20679 -27.6793
C -9.88143 6.67573 29.1959
C -9.69773 5.47081 29.3629
C -0.0830573 34.2434 -31.5734
C -1.04841 34.3222 -30.8622
C 22.3091 37.8255 25.1153
C 21.2557 38.0014 25.655
C -17.2888 5.29046 1.11915
C -16.848 6.06418 0.267665
C -15.7828 28.8612 -37.3602
C -15.9229 27.6626 -37.6399
C 1.11587 -28.4609 40.1805
C 2.28911 -28.4989 39.7608
C 31.3744 -35.828 1.49987
C 31.3658 -36.9234 1.04339
C 17.9432 32.0448 26.3905
C 19.1294 31.8589 26.2854
H -38.0809 34.2122 20.0969
C -20.2107 22.5838 33.2175
C -21.05 23.0665 33.9762
C -5.21616 3.03016 3.58359
C -4.78205 3.00257 2.46711
C 23.1117 25.9006 -15.3864
C 23.6857 26.3899 -16.352
C -20.6929 -22.1672 6.92537
C -21.7214 -22.1158 7.54791
C -1.54178 28.7905 -18.797
C -1.6154 27.8286 -18.0974
C 30.5431 -28.7125 -9.56484
C 31.2982 -28.1472 -8.82789
C -24.9516 -5.09664 38.9525
C -24.6673 -4.36473 -40.1221
C 34.9714 -32.1422 10.1327
C 35.9858 -32.7448 10.0234
C -39.13 16.6909 27.4973
C -40.038 16.1593 26.8825
84
Atoms. Timestep: 120000
C -10.5167 -27.3571 -23.9357
C -10.1872 -28.3663 -24.502
H -35.7648 -3.17038 -37.524
C -8.55099 -0.611409 -1.32186
C -9.03968 0.42385 -1.00016
C -39.6682 10.4605 -12.7302
C -38.8027 9.81139 -13.2485
C 6.00174 29.3368 -29.9576
C 6.67291 28.4516 -29.4761
C 12.3844 17.535 17.8006
C 12.5148 18.3699 18.6795
C -36.5736 -3.91612 -37.6898
C -37.4232 -4.75244 -37.7893
C 11.2902 39.8803 40.0043
C 10.4132 39.729 -39.1768
C -37.8195 9.13266 -13.7732
C -36.9133 8.42346 -14.1221
C -23.348 -14.2915 -10.5407
C -23.0347 -15.1692 -9.87507
C -23.7931 -13.2192 -11.3782
C -24.2181 -12.248 -11.9573
C 33.3073 2.05798 11.8706
C 33.2298 1.80193 13.0639
H -22.7137 -15.9453 -9.17686
C -20.5134 -29.1112 -24.4506
C -20.9207 -29.9159 -25.2693
C 0.424747 -7.00901 -2.19863
C 0.584293 -6.49662 -3.2574
C -13.7022 26.4679 -29.5594
C -12.7532 25.7734 -29.7488
C 3.89557 -5.77863 -14.5147
C 3.33072 -6.43865 -13.651
C 33.855 25.9888 -31.8434
C 33.4391 26.4086 -32.8896
C -3.93958 -34.3906 -27.4978
C -5.03939 -34.6912 -27.8984
C -2.4343 25.5464 -9.66011
C -3.57967 25.9521 -9.89645
C -1.31081 24.9898 -9.34304
C -0.300617 24.4237 -8.95161
C 1.11154 -5.16153 -5.35528
C 0.842695 -5.83773 -4.35521
C 14.5837 -36.8855 -9.54149
C 14.4159 -36.3828 -10.6881
H 14.5334 -37.3532 -8.55458
C -3.36236 -16.4483 -37.9609
C -4.41265 -15.9428 -38.3369
C -4.64227 17.4897 -25.4116
C -4.66057 16.7206 -24.4983
C -5.15675 7.92773 38.8338
C -4.51133 6.86681 39.0507
C 4.22879 25.6966 -27.5907
C 4.48013 26.834 -27.244
C 38.7841 -37.3682 20.634
C 37.7947 -38.0418 20.8623
C -13.4326 6.35771 0.81056
C -13.9842 7.39647 0.473169
C -19.8351 36.9363 33.2435
C -18.7717 37.4423 33.0889
C 9.26813 -26.2471 -32.6685
C 9.57863 -27.1953 -33.3284
C 17.4895 -35.7109 2.53557
C 17.7301 -36.8458 2.82886
C 22.8005 30.0037 30.9452
C 23.9823 30.245 31.1329
H 17.4562 37.6611 6.3448
C -18.9731 36.7408 30.0476
C -18.8456 36.0109 29.0664
C -5.68906 1.71704 3.18196
C -5.4051 2.45415 4.06971
C 18.0924 29.1335 -21.2333
C 18.4848 30.1519 -21.7337
C -24.3461 -29.4108 10.169
C -23.2947 -28.8157 9.92189
C 8.46758 22.3634 -26.8282
C 8.21862 21.1683 -27.0474
C -37.6772 39.4271 -7.9452
C -38.4261 38.8254 -8.64547
C -24.562 -7.28964 33.3287
C -25.6822 -7.34195 32.8954
C 31.8789 -22.33 10.9623
C 32.7335 -21.5189 11.017
C 36.9692 12.9835 25.6142
C 36.185 12.2727 26.2212
84
Atoms. Timestep: 140000
C -10.2742 -30.4018 -14.2215
C -9.5602 -31.3494 -14.4198
H -38.4272 -0.339302 -31.2721
C -7.44766 0.175959 -1.17267
C -7.44234 0.105497 -2.37749
C 32.5812 9.66876 -10.8817
C 33.4956 8.92671 -11.1874
C 8.66914 20.6854 -34.3035
C 9.72552 20.7257 -34.8919
C 8.13414 19.2795 16.5086
C 7.10363 19.2372 17.1441
C -38.5716 -1.43122 -31.0033
C -38.6182 -2.57444 -30.6567
C 18.4887 -24.7765 -37.1235
C 17.3309 -24.3853 -37.039
C 34.5047 8.12536 -11.3203
C 35.5134 7.41477 -11.2835
C -23.6214 -17.0023 -15.8127
C -24.629 -17.1972 -15.3224
C -22.2967 -16.9718 -16.3201
C -21.2179 -16.9228 -16.9087
C 39.2794 -2.9408 17.9308
C 39.7215 -2.55789 16.8603
H -25.5916 -17.3748 -14.7623
C -26.3378 -32.5828 -27.5159
C -25.6274 -32.2248 -26.6198
C 7.05955 -1.22674 -3.93922
C 6.87122 -2.01798 -3.06579
C -17.093 28.4918 -19.3964
C -17.214 29.5322 -20.0231
C -1.31663 -3.60706 -21.4301
C -0.723507 -3.44041 -22.5444
C 30.7383 25.3033 -38.9515
C 31.5015 24.403 -38.7375
C 0.633726 -32.9592 -33.3623
C 0.530371 -31.7984 -33.6811
C -5.55793 25.9363 -10.3467
C -5.1911 25.8744 -9.20758
C -6.0685 25.8139 -11.5437
C -6.5694 25.605 -12.6105
C 6.58621 -3.6503 -1.08308
C 6.74116 -2.93556 -2.08064
C 5.87424 31.5022 -12.5247
C 6.22726 31.8052 -11.3867
H 5.47577 31.122 -13.5083
C -1.96221 -7.5836 -33.7441
C -1.68734 -6.81031 -32.8721
C -13.1604 26.3579 -22.515
C -13.1405 25.3896 -21.8015
C -0.417071 9.05595 -31.5622
C 0.605195 8.37192 -31.3346
C 1.62864 17.3929 -21.0597
C 2.81815 17.4417 -21.1902
C -24.9344 -32.8171 16.1898
C -25.4339 -33.8934 15.9137
C -9.82669 7.90233 0.32096
C -10.8853 8.20854 0.852225
C -20.85 -33.6988 25.3056
C -21.7126 -32.828 25.5097
C 17.5104 -24.5592 -25.9034
C 16.6925 -25.3854 -26.1097
C 3.69554 -35.9545 3.61321
C 4.08482 -36.5452 4.56359
C 27.7847 27.953 35.4625
C 28.6581 28.6632 35.9669
H -6.02523 -37.2784 -7.41242
C -18.6952 -31.1882 23.5455
C -18.58 -30.4723 24.4883
C 0.662514 3.08747 6.01076
C 0.295459 2.63836 7.08582
C 13.1465 32.51 -27.096
C 13.267 33.7317 -27.0373
C -26.2119 -35.5036 12.922
C -26.8503 -36.5776 12.9264
C 20.8268 9.66982 -31.9062
C 20.6679 10.9309 -31.8661
C -27.4738 26.4469 -7.76882
C -26.6962 27.0557 -7.02976
C -25.8684 -9.54975 27.0807
C -24.9977 -10.2234 26.6069
C 29.4603 -11.9925 11.8244
C 28.8424 -10.9347 11.9679
C 32.7227 8.95734 24.0547
C 32.7961 8.74688 25.2504
84
Atoms. Timestep: 160000
C -10.1763 -33.7719 -4.6862
C -9.18973 -34.4115 -4.43153
H 38.8608 1.49012 -24.8412
C -5.99442 -0.303276 -0.693957
C -7.22209 -0.441947 -0.630892
C 24.9804 8.76818 -8.96538
C 25.9641 8.07321 -8.9915
C 12.0852 13.3559 -39.2903
C 12.6665 13.1256 39.6677
C 3.25545 20.9508 15.6464
C 2.47362 20.1363 15.2236
C 39.4998 0.754238 -24.3013
C -39.8245 -0.0903992 -23.7812
C 25.2566 -9.55471 -34.2972
C 24.4561 -8.87176 -34.9344
C 26.9967 7.22297 -8.89078
C 27.9373 6.43724 -8.76958
C -22.6779 -19.7218 -21.5137
C -23.1103 -18.8107 -22.0166
C -22.0986 -20.8097 -20.7673
C -21.6977 -21.7811 -20.1648
C -33.935 -7.11213 21.8986
C -34.7974 -7.59723 22.5934
H -23.5875 -17.9697 -22.5041
C -30.719 -35.4515 -28.8961
C -31.6108 -35.0451 -29.5856
C 6.95256 4.69327 1.40773
C 6.51875 4.02323 0.414646
C -27.1677 37.1714 -8.64583
C -27.6798 38.2678 -8.83424
C -4.63523 -0.819645 -31.0905
C -5.2102 -1.13454 -30.0124
C 28.144 20.1677 35.7849
C 29.2692 20.0291 36.1707
C 5.02039 -30.3303 -39.4717
C 6.12646 -30.1715 -39.0349
C -9.46119 25.8903 -12.7446
C -9.10837 25.1151 -13.5809
C -9.93524 26.7574 -11.8849
C -10.3769 27.745 -11.2657
C 5.62225 2.6172 -1.49368
C 6.09008 3.34902 -0.57507
C -2.1674 20.3103 -13.4842
C -2.49386 19.8536 -14.5417
H -2.07918 20.8839 -12.4996
C -0.965289 1.87598 -27.9683
C 0.0613275 1.43758 -27.5498
C -15.1209 29.0547 -20.1387
C -15.0962 28.2291 -21.0379
C 4.34267 10.0481 -22.0817
C 5.5455 9.97169 -21.899
C -0.0899418 8.59211 -14.1941
C -0.36642 7.61762 -14.849
C -8.96971 -29.2069 11.6946
C -9.14669 -30.3246 11.2971
C -6.90045 9.62975 0.125465
C -7.19234 8.76829 0.931226
C -23.4325 -23.8497 16.3265
C -22.8084 -22.8157 16.0533
C 25.2278 -23.2128 -19.2958
C 24.0886 -23.2892 -18.9546
C -9.7857 -36.4563 4.90215
C -9.4659 -36.0271 6.0381
C 32.5434 30.4212 39.2337
C 33.259 29.4808 39.0037
H -24.1938 -25.8376 -21.373
C -18.737 -18.2312 20.0087
C -18.2145 -19.3186 20.2599
C 4.32807 4.04321 4.47564
C 4.48115 4.27216 5.68239
C 8.23101 35.954 -32.7479
C 8.17944 37.134 -32.3752
C -29.341 38.0871 16.1996
C -28.782 37.5833 15.2063
C 32.7146 -0.430418 -36.8128
C 33.1779 -1.5178 -36.702
C -15.9036 14.7824 -6.07874
C -16.6799 14.3616 -6.95608
C -25.8733 -12.7841 20.213
C -25.6048 -12.0494 21.1362
C 26.6087 -0.881068 12.7969
C 25.4839 -1.45521 12.7798
C 28.6364 4.96641 22.9576
C 29.3677 5.30521 23.8571
84
Atoms. Timestep: 180000
C -10.0429 -37.2972 4.87829
C -9.03484 -37.5025 5.50367
H 36.6744 2.61871 -17.8247
C -8.6853 1.66827 -3.37931
C -9.00026 0.908373 -2.51813
C 17.5449 7.90086 -6.99306
C 18.4037 7.07006 -6.89528
C 15.5868 5.99437 35.5488
C 15.5128 5.57879 34.4163
C -2.06828 22.1567 14.55
C -1.6978 21.4973 13.5412
C 37.6918 2.63103 -17.4808
C 38.8093 2.75426 -17.0935
C 31.8227 5.82105 -31.6476
C 31.7633 6.44406 -32.6603
C 19.3961 6.30071 -6.5167
C 20.3605 5.60113 -6.16942
C -21.5755 -23.3585 -26.483
C -20.6582 -23.0301 -27.0982
C -22.5971 -23.8795 -25.734
C -23.433 -24.4274 -25.1214
C -28.7828 -12.1916 27.1677
C -27.699 -11.7163 27.0103
H -19.8311 -22.743 -27.7119
C -36.6726 -37.5848 -31.4889
C -36.0071 -38.5928 -31.3327
C 2.87275 4.02807 -4.90351
C 2.55925 4.96327 -4.16057
C -37.2854 -34.026 2.05829
C -38.0514 -33.16 2.35371
C -6.79399 2.02062 -38.9723
C -6.22249 2.61865 -39.8518
C 26.8772 14.0076 31.1991
C 26.2 13.695 32.1524
C 10.5578 -27.5343 34.8835
C 10.5576 -28.7178 35.1632
C -14.1478 27.3663 -13.9399
C -15.2101 27.7962 -14.2564
C -13.0602 26.7114 -13.753
C -12.0207 26.0618 -13.5149
C 2.07992 6.84852 -2.54875
C 2.30994 5.95108 -3.37872
C -10.8743 8.38001 -16.3049
C -10.4568 8.92986 -15.3354
H -11.0768 7.79496 -17.2893
C -1.41263 10.2629 -21.5952
C -1.37277 9.22548 -22.2235
C -16.954 30.9029 -18.4726
C -17.0586 31.7556 -19.3316
C 9.22546 11.0339 -12.5935
C 10.3474 11.5742 -12.4942
C -2.08853 -1.31224 -7.76594
C -3.07279 -1.04082 -7.10386
C 6.91709 -25.6973 7.1504
C 7.056 -26.7985 6.6599
C -4.08871 10.61 0.467277
C -3.20458 9.74523 0.450785
C -24.8184 -12.6167 7.64131
C -23.6758 -12.4849 7.29923
C 32.4944 -21.9432 -12.5924
C 31.914 -21.1212 -11.9148
C -23.1067 -36.8315 6.65718
C -23.1338 -35.6289 7.04039
C 37.8193 32.7466 -38.3083
C 36.8454 33.4349 -38.3929
H -31.7979 -1.253 -38.9357
C -18.8054 -7.44212 16.3219
C -19.5941 -7.68908 15.4223
C -5.52409 1.7512 5.18957
C -6.63995 1.71299 4.70845
C 3.31806 39.4465 -38.3708
C 3.10363 -39.522 -37.7264
C -31.892 31.3189 18.6213
C -31.1707 32.25 18.4218
C -34.485 -12.7029 38.5094
C -35.2594 -11.7622 38.2472
C -5.72147 2.16696 -5.89213
C -4.72324 2.33293 -5.22479
C -25.3065 -14.9194 14.6129
C -26.4304 -15.0414 14.2067
C 22.6727 9.67938 13.7537
C 23.2188 8.54598 13.6048
C 24.7634 1.08122 22.0995
C 25.7368 1.76838 22.2284
84
Atoms. Timestep: 200000
C -9.70116 39.1028 14.2759
C -9.09713 39.6272 15.1774
H 35.472 3.81773 -10.6285
C -6.56481 3.61168 -2.35227
C -7.30016 3.34746 -3.26476
C 10.0304 7.75018 -4.91353
C 10.9443 6.90443 -4.77973
C 18.854 -1.27098 30.4167
C 18.453 -1.73419 29.3665
C -7.07673 23.0146 12.9752
C -5.9743 23.1493 12.3988
C 36.2409 4.57675 -10.7127
C 37.0778 5.41745 -10.6805
C 38.2966 20.9408 -29.2331
C 38.8556 21.3365 -30.26
C 11.9556 6.13912 -4.41477
C 12.9117 5.45394 -4.09814
C -21.0549 -27.3379 -31.0015
C -20.0082 -27.7745 -30.9052
C -22.336 -26.6722 -30.9801
C -23.3961 -26.1411 -31.1104
C -21.7701 -16.3777 32.186
C -22.7854 -16.6515 31.5653
H -19.1004 -28.3446 -30.7895
C 38.6 38.2084 -34.2194
C 38.8041 39.1955 -33.5372
C -3.35144 4.30533 -4.92027
C -3.03488 3.34291 -5.7244
C 32.7486 -25.4049 12.6042
C 31.8788 -24.791 13.2152
C -7.8812 6.17443 31.9595
C -8.21394 4.92602 31.907
C 24.7052 7.57078 27.9757
C 24.132 7.91427 26.9622
C 15.982 -26.0007 29.6514
C 14.8813 -26.0957 29.2018
C -17.8684 28.2224 -15.2476
C -17.2788 28.004 -14.2028
C -18.183 28.586 -16.4784
C -18.5858 29.0018 -17.5888
C -2.55794 1.32795 -7.16086
C -2.76434 2.30825 -6.38561
C -18.7625 -2.54992 -17.2426
C -18.9932 -2.70863 -18.4107
H -18.4006 -2.37831 -16.2687
C -1.92944 17.8749 -15.7873
C -2.71796 17.4165 -16.6103
C -18.1075 32.5237 -16.4965
C -17.352 31.8859 -15.8121
C 14.3238 10.6224 -3.08751
C 15.0774 11.5933 -3.05117
C 2.41219 -14.4883 3.98111
C 3.4299 -14.401 4.60398
C 22.6921 -22.2429 2.6402
C 22.6601 -23.3729 2.19191
C -0.317591 9.81907 0.599951
C 0.390109 10.4253 -0.203165
C -25.9169 -1.61097 -0.623048
C -24.9261 -2.3291 -0.869048
C 39.4904 -20.3748 -5.80891
C 39.6759 -19.328 -5.25935
C -36.12 -36.6199 8.6298
C -36.5092 -35.8174 7.76076
C -38.9552 36.5424 -35.8492
C -37.9182 36.6427 -35.2112
H -38.3869 23.2375 22.2083
C -20.0789 2.79442 11.504
C -20.007 3.94941 11.8803
C -6.08824 -2.60272 -1.33036
C -6.60377 -1.95836 -2.20362
C -1.57955 -37.2264 36.2859
C -1.76641 -36.1639 36.8856
C -33.6474 25.6777 20.8009
C -34.2467 26.0563 21.7552
C -23.3755 -22.8068 33.3689
C -22.4914 -23.5507 33.7722
C -0.704389 -3.83031 -6.72896
C -1.61992 -4.2889 -7.42585
C -26.2225 -17.1484 8.21862
C -25.3522 -17.8533 7.75296
C 19.4073 18.7838 14.5291
C 20.4204 19.548 14.572
C 21.1457 -2.56833 21.1477
C 22.0166 -1.83977 20.7483
84
Atoms. Timestep: 220000
C -9.2635 35.629 23.985
C -9.25226 36.5591 24.7506
H 34.9959 5.72375 -3.43271
C -0.635473 1.874 7.55499
C -1.27668 1.76035 6.55007
C 4.37032 11.0301 -1.90838
C 4.68016 9.8685 -1.95156
C 22.1473 -8.57672 24.8622
C 21.3242 -9.02247 24.0852
C -11.6365 23.9397 11.1149
C -10.8022 24.762 11.5119
C 34.9809 6.7341 -3.8246
C 35.0582 7.86176 -4.23513
C -35.0792 36.3191 -26.9964
C -34.0519 36.3051 -27.6311
C 5.13615 8.68009 -2.01093
C 5.68005 7.5659 -2.08376
C -21.2002 -30.9751 -35.5315
C -21.1879 -31.8073 -34.7671
C -21.3187 -29.8036 -36.3836
C -21.3616 -28.8323 -37.0779
C -16.6333 -21.5534 36.3803
C -16.0824 -21.5601 37.4581
H -21.2479 -32.6234 -34.0668
C 33.3672 33.6276 -36.7059
C 33.1309 34.7811 -36.3965
C -1.33362 -3.61236 -5.0566
C -1.43195 -2.87461 -6.08786
C 22.5899 -16.603 23.2997
C 21.7764 -16.4209 24.1658
C -9.56407 8.3602 22.8091
C -9.64376 9.27288 23.5564
C 21.6775 1.54857 23.2836
C 22.8727 1.58374 23.1476
C 20.3399 -24.5274 23.8966
C 20.3828 -23.361 23.6376
C -21.9095 30.9836 -17.7626
C -21.4729 31.2713 -18.8863
C -22.4465 30.8294 -16.61
C -23.019 30.848 -15.5317
C -1.6066 -1.42461 -8.21985
C -1.55638 -2.11131 -7.14271
C -27.2274 -13.7106 -20.158
C -26.9989 -14.3024 -19.0468
H -27.4222 -13.4201 -21.2651
C -2.79852 25.2731 -10.3379
C -3.73146 25.9962 -10.5124
C -18.8127 30.9213 -14.2162
C -18.8483 31.0847 -15.4054
C 17.43 5.48901 6.03202
C 18.5962 5.84499 6.21099
C 10.0856 -24.9806 16.799
C 9.34181 -25.9412 16.7862
C 38.5261 -18.7708 -1.89178
C 38.5521 -19.889 -2.35357
C 3.70779 6.36943 -0.654489
C 3.26536 7.36715 -0.188212
C -26.7153 9.33774 -9.05839
C -26.5027 8.1169 -9.04653
C -33.4843 -18.4809 1.24674
C -32.4264 -17.8235 1.27288
C 30.5027 -35.9927 10.1168
C 30.1878 -36.4214 8.99659
C -33.7619 -38.0418 -32.2716
C -33.6766 -39.1891 -32.727
H -37.8014 -31.1278 3.96538
C -21.2769 14.7789 7.15262
C -20.5142 14.0818 7.77942
C -4.23623 -5.42977 -0.0682381
C -4.5577 -4.85834 -1.10385
C -6.53408 -33.8014 30.8235
C -6.74938 -32.8271 31.4665
C -36.3916 20.3979 24.0571
C -36.9961 19.2974 24.0038
C -10.253 -34.1558 28.7412
C -11.1921 -33.4768 28.3018
C 6.46062 -2.16502 -0.997367
C 5.90697 -1.92954 -2.02083
C -25.8399 -20.4509 1.06315
C -25.5724 -19.6464 1.91645
C 17.2435 28.884 15.3653
C 16.4533 29.7766 15.4975
C 17.687 -6.22292 20.4769
C 18.1678 -5.66878 19.5017
84
Atoms. Timestep: 240000
C -8.71841 32.4626 33.7317
C -9.51064 33.3606 33.8411
H 34.3597 8.35634 3.28464
C 5.84085 -3.38969 1.29217
C 5.99183 -4.45841 0.752043
C 8.35833 17.6303 -4.29602
C 7.54649 16.7484 -4.49174
C 24.2827 -16.1309 19.1308
C 23.325 -16.5397 18.528
C -15.8103 25.1729 9.49058
C -15.8014 26.0083 10.4514
C 33.7286 9.10187 2.8011
C 33.1202 9.92563 2.19363
C -28.2345 -27.8389 -26.3848
C -27.3123 -28.2429 -25.724
C 6.59893 15.8889 -4.74202
C 5.73128 15.0569 -4.82813
C -21.4068 -33.9605 39.6462
C -22.2628 -34.3269 -39.6999
C -20.3488 -33.4515 38.8573
C -19.3822 -33.0467 38.2754
C -10.7313 -26.6664 -37.6038
C -10.4156 -26.3181 -38.7012
H -23.1108 -34.6126 -39.0465
C 28.3555 29.2331 -39.2044
C 28.0525 30.3854 -39.1081
C 2.59625 -3.73967 -5.49341
C 1.97637 -4.35409 -4.58699
C 13.0294 -7.33398 33.3162
C 12.3156 -7.33357 34.3032
C -11.4272 11.7528 15.1369
C -10.8221 12.2633 14.1286
C 20.457 -4.3146 18.543
C 19.8721 -4.6538 19.5505
C 24.6445 -21.8178 18.0011
C 25.7457 -21.7827 18.4696
C -24.1663 33.5734 -15.3905
C -23.4088 34.0511 -14.5529
C -24.934 33.2642 -16.3634
C -25.5873 33.0703 -17.4111
C 0.930123 -5.55295 -2.70833
C 1.43587 -4.93042 -3.60247
C -35.301 -25.6277 -21.3938
C -35.0922 -24.4173 -21.7317
H -35.3596 -26.6098 -20.7793
C -3.93525 32.9156 -4.9465
C -4.4342 33.9656 -4.62094
C -23.5789 30.1559 -18.1529
C -23.5286 29.3606 -19.0682
C 20.5711 0.336275 14.9444
C 21.7387 0.184303 15.1963
C 16.3101 -36.779 29.253
C 16.3915 -35.6706 28.7596
C -24.9044 -15.5761 -6.59161
C -26.058 -15.6597 -6.28359
C -3.3827 1.97775 4.81385
C -2.91977 2.72481 5.67495
C -27.5156 19.714 -17.2752
C -28.0231 18.6453 -17.0621
C -25.899 -16.6527 7.94263
C -24.7682 -16.6415 7.56639
C 17.2281 -35.5913 10.8698
C 17.3937 -36.8008 10.9045
C -29.1294 -34.3173 -28.1605
C -29.8383 -35.1903 -28.6929
H 32.8814 -15.3769 -15.7665
C -21.3703 25.4363 3.76829
C -22.0864 25.0349 2.90549
C 0.977405 -6.33881 5.58917
C -0.0969704 -6.36552 5.06308
C -12.2014 -30.2385 26.0861
C -11.6305 -29.4211 25.4377
C -39.7937 13.9531 27.1567
C -39.0055 13.9843 26.2718
C 1.30281 35.4402 23.1748