42
Atoms. Timestep: 0
C 1.98593 -6.3882 1.41008
C 2.64381 -6.48661 0.407658
H -23.4353 31.7491 18.5861
C -32.6792 -17.0276 -16.7307
C -32.9427 -17.9526 -16.011
C -34.1945 -10.008 -31.33
C -33.4811 -9.59589 -32.2102
C 15.5323 27.1478 -23.733
C 16.3361 26.4287 -24.2625
C -1.08141 -27.8802 -13.0488
C -1.7072 -27.7534 -14.0613
C -22.4811 32.1026 18.9707
C -21.4781 32.5345 19.4423
C 25.1075 13.0433 -26.4937
C 25.9996 13.6994 -26.9873
C -32.7315 -9.10037 -33.1375
C -31.9973 -8.65386 -33.974
C 4.49984 -31.9073 21.9146
C 5.22171 -31.9746 22.9037
C 3.80349 -31.8267 20.8266
C 3.15578 -31.6174 19.8495
C -12.8064 -26.7421 -10.9657
C -12.5385 -25.5898 -11.0019
H 3.68036 15.7893 10.275
C -28.2711 35.91 -24.8335
C -29.4434 35.8666 -24.9407
C 28.3242 17.27 1.0761
C 28.0544 18.4961 0.856755
C -29.9122 8.79708 11.7676
C -30.0142 7.85457 12.5209
C -6.20438 13.8204 -8.60484
C -5.37958 14.6048 -9.18713
C 37.1066 -24.8157 -35.642
C 37.269 -25.7675 -36.4332
C -22.7007 25.1644 -19.0264
C -23.5627 25.3647 -19.9166
C -22.6808 8.16001 -8.94412
C -23.8132 8.20351 -9.27387
C -28.04 -3.75079 4.73954
C -29.2413 -3.65508 4.81586
C -19.6964 36.8343 32.6373
C -19.7305 36.2821 33.7424
42
Atoms. Timestep: 20000
C 0.808896 -1.04071 6.56268
C -0.376565 -1.13538 6.8107
H -23.5949 33.7563 26.3657
C -24.5787 -18.2639 -27.0152
C -24.8853 -19.2589 -26.4259
C -39.899 -8.62125 -30.2889
C -40.0255 -9.82386 -30.1912
C 14.5322 14.2329 -25.8724
C 14.1239 13.7722 -24.8163
C -4.61111 -26.6326 -13.4902
C -5.79315 -26.8751 -13.5674
C -23.4986 34.7197 25.8788
C -23.434 35.7613 25.3245
C 32.4563 26.0018 -28.0878
C 33.426 26.5357 -28.6009
C 39.8595 -11.0589 -29.9242
C 39.6166 -12.2456 -29.6927
C 8.93753 -30.8159 24.1181
C 8.65777 -30.164 25.0818
C 9.22762 -31.6194 23.1374
C 9.32068 -32.3057 22.1732
C -15.2159 -23.8725 -11.871
C -14.9579 -23.3366 -10.8281
H -36.6583 -1.88607 33.6156
C -33.0515 33.3432 -28.3381
C -34.0984 32.6598 -28.087
C 36.5901 21.4087 0.0280613
C 36.1714 21.4622 -1.17607
C -31.0268 8.56711 20.2893
C -31.2566 7.72173 21.1064
C -10.1972 16.7185 -16.6549
C -9.59085 16.5115 -17.7593
C -39.3582 -22.5577 -39.9759
C -39.4967 -23.5031 39.2931
C -23.6325 25.1583 -27.6034
C -24.4408 25.5826 -28.4619
C -17.4596 0.621392 -7.1338
C -16.8 0.970687 -6.18492
C -33.0207 -1.48889 3.46278
C -33.5532 -0.596937 2.84265
C -21.214 32.2085 35.9863
C -20.8091 31.4558 35.1579
42
Atoms. Timestep: 40000
C -1.75321 5.73132 3.62495
C -1.10337 6.03836 4.60195
H -23.6009 38.1215 33.0337
C -16.4531 -19.5111 -37.3306
C -16.7987 -20.5628 -36.8794
C 33.7494 -12.8808 -28.3119
C 33.1613 -12.017 -27.6705
C 12.9707 0.629265 -26.5605
C 12.4624 1.71858 -26.8304
C -8.74331 -25.4949 -13.9988
C -9.30216 -25.8798 -13.006
C -24.484 38.1093 32.4102
C -25.4449 38.038 31.7219
C 40.0086 38.9255 -29.7253
C -38.9769 39.2891 -30.2439
C 32.5114 -11.0775 -27.0943
C 31.9918 -10.1806 -26.4304
C 13.3712 -30.2529 25.8432
C 12.6464 -29.2579 25.7464
C 14.3424 -31.0864 25.8966
C 15.3117 -31.8787 26.0706
C -17.4874 -20.6768 -12.2134
C -17.5314 -21.3923 -11.2194
H 2.8678 -19.6207 -22.9655
C -38.2653 30.7523 -31.7776
C -38.6761 29.662 -31.2585
C -35.4119 25.5815 -1.88209
C -35.3887 24.4181 -2.35712
C -32.1367 8.32723 28.8373
C -32.5116 7.59757 29.723
C -13.9274 19.558 -25.2124
C -14.0923 18.493 -25.8797
C -35.7963 -20.311 35.658
C -36.2662 -21.2124 35.0228
C -24.5874 25.1528 -36.2359
C -25.2951 25.8055 -37.0234
C -10.9991 -6.33021 -3.62987
C -10.9852 -6.8987 -4.77315
C -38.2511 1.23322 1.8624
C -37.6466 2.01884 1.18216
C -22.2053 26.5641 38.2737
C -22.4296 27.6117 37.6655
42
Atoms. Timestep: 60000
C -1.65367 5.69771 -3.55638
C -2.38093 4.76925 -3.83969
H -25.7979 -37.5431 38.2707
C -8.30658 -20.7703 32.3273
C -8.68584 -21.8622 32.6331
C 24.6266 -12.9338 -23.3147
C 25.3865 -12.707 -24.242
C 10.6981 -11.5021 -27.6238
C 11.5026 -11.8821 -28.4773
C -14.1166 -25.0104 -11.7463
C -12.936 -24.733 -11.8183
C -26.157 -38.5392 38.4768
C -26.5932 -39.6272 38.7436
C -32.1102 -28.3887 -31.4367
C -31.0459 -28.1282 -31.9634
C 26.2005 -12.5925 -25.2196
C 26.9804 -12.3416 -26.1098
C 18.4825 -29.9296 27.6019
C 17.9719 -29.8731 26.4976
C 19.1034 -29.9655 28.7452
C 19.6989 -30.2716 29.7849
C -19.7831 -17.8609 -11.9686
C -20.0942 -19.0539 -12.2004
H -21.723 -31.347 -39.8407
C 36.1253 28.1898 -35.0699
C 36.4946 27.1029 -34.4558
C -27.3643 28.9702 -4.09222
C -26.9505 28.1788 -3.24721
C -33.2478 8.0659 37.4223
C -33.7724 7.49382 38.3525
C -17.7434 21.8741 -34.1393
C -18.532 21.0119 -33.6794
C -32.2124 -18.0903 31.2508
C -33.038 -18.8823 30.7683
C -31.0147 25.243 37.9066
C -30.5657 25.8264 38.8356
C -4.45516 -14.3304 -2.16934
C -5.21781 -13.7626 -1.30359
C 36.7818 4.27135 -0.0145838
C 37.9695 4.33416 -0.211241
C -18.566 22.4073 36.1671
C -18.8048 22.3592 37.3353
42
Atoms. Timestep: 80000
C 1.22315 -2.62994 -6.62394
C 0.211775 -2.00249 -6.81516
H -28.9837 -35.7131 -35.9544
C -0.119665 -22.0456 21.9325
C -0.526239 -23.1592 22.0868
C 19.2676 -12.0595 -22.6787
C 18.8494 -13.1857 -22.3041
C 9.53832 -24.2395 -29.8772
C 9.4126 -25.0147 -28.9486
C -17.7836 -24.0879 -9.13089
C -18.9268 -24.2416 -9.50988
C -28.1944 -35.9817 -35.2042
C -27.3259 -36.2764 -34.4578
C -24.1739 -15.6106 -33.1669
C -23.0854 -15.5023 -33.6825
C 18.5249 -14.3306 -21.8452
C 18.181 -15.4419 -21.3802
C 23.8772 -29.7841 29.9378
C 24.3871 -30.4437 29.0202
C 23.4334 -29.071 30.9329
C 23.2488 -28.2918 31.8598
C -22.2757 -15.7629 -11.8374
C -22.4805 -15.9757 -13.0713
H -39.1447 39.8747 5.70806
C 30.586 25.4231 -38.2678
C 31.5393 24.7206 -37.7822
C -19.0067 31.9142 -5.74699
C -18.734 32.4225 -4.70927
C -34.3672 7.77324 -33.9236
C -35.0375 7.41943 -32.9947
C -22.0345 23.6682 37.1102
C -22.5077 24.0604 38.1713
C -28.6406 -15.9382 26.7615
C -29.7612 -16.4594 26.5496
C -37.9181 25.863 35.0676
C -38.4698 24.9939 34.3748
C 0.765936 -21.3249 0.916467
C 1.93837 -21.7119 0.56711
C 32.1776 7.29374 -1.9256
C 33.1728 6.69391 -1.58813
C -13.5281 18.3671 34.4597
C -13.5259 17.2822 33.9241
42
Atoms. Timestep: 100000
C 1.49609 -6.30303 -0.58562
C 2.67954 -6.48245 -0.61893
H -30.1228 -34.6108 -28.2165
C 7.96844 -23.3135 11.661
C 7.54037 -24.4333 11.663
C 12.3248 -16.4722 -20.0364
C 11.9371 -15.3868 -19.658
C 8.2163 -37.8958 -30.8204
C 7.523 -36.9247 -30.6981
C -23.451 -23.4065 -7.39212
C -22.8055 -23.5232 -6.3831
C -29.5369 -33.6748 -28.3853
C -28.891 -32.6869 -28.4829
C -16.316 -3.02561 -34.8771
C -15.233 -2.98142 -35.381
C 11.4999 -14.2692 -19.2284
C 11.023 -13.28 -18.7329
C 29.0521 -29.2447 32.845
C 30.1023 -29.8961 32.9003
C 28.0754 -28.4098 32.6127
C 27.1756 -27.6196 32.4071
C -24.8549 -13.8043 -12.4261
C -24.7213 -12.8212 -13.2131
H 23.6547 31.2203 -28.3476
C 25.2444 22.4898 38.6924
C 26.5095 22.5653 38.8098
C -10.5637 35.1153 -6.70758
C -10.7974 36.3248 -6.82894
C -35.5024 7.51859 -25.3654
C -36.2589 7.31133 -24.4492
C -26.4513 25.7251 28.9789
C -26.2338 26.7735 29.5518
C -25.2173 -13.7908 22.3607
C -26.4161 -14.0853 22.3445
C 34.2011 24.7833 31.0059
C 34.7772 25.8635 31.2223
C 8.04192 -28.9106 3.38623
C 6.89443 -28.8945 2.9957
C 28.1037 10.1218 -3.75139
C 27.9559 9.18482 -3.01166
C -8.53634 12.7545 31.8785
C -8.34881 13.9004 31.4962
42
Atoms. Timestep: 120000
C 1.42968 -3.18919 5.94955
C 0.58622 -2.56554 6.54099
H -29.7778 -31.1969 -20.888
C 16.0192 -24.6037 1.42309
C 15.5843 -25.7152 1.25521
C 3.55342 -15.8342 -15.3489
C 4.24673 -15.9012 -16.3258
C 5.94918 29.8322 -31.5999
C 6.5895 29.8685 -32.6021
C -28.0203 -22.9424 -3.89492
C -27.7497 -22.5923 -5.03142
C -30.3924 -30.6139 -21.6367
C -31.0573 -30.0659 -22.4493
C -8.49684 9.503 -36.5742
C -7.39566 9.50982 -37.081
C 5.08757 -15.994 -17.3042
C 5.95504 -16.0545 -18.1603
C 33.762 -28.2129 35.52
C 34.3607 -28.1481 36.5774
C 33.1388 -28.2119 34.388
C 32.5363 -28.1851 33.263
C -27.3505 -11.3194 -13.4208
C -27.0292 -10.2108 -12.9464
H 6.51311 22.5954 17.7134
C 20.2741 19.61 35.6841
C 21.1439 20.3739 35.3925
C -2.30532 39.1948 -7.70676
C -2.7323 39.3243 -8.89946
C -36.6457 7.27338 -16.8301
C -37.4641 7.19504 -15.9394
C -30.7534 28.1504 21.0477
C -30.0466 29.1018 20.7897
C -21.8576 -11.6364 17.996
C -23.0308 -11.7338 18.1328
C 27.4315 25.7419 27.3603
C 26.9632 24.6957 27.6783
C 13.2951 -36.4372 5.1491
C 13.836 -36.047 6.13565
C 23.9841 12.3865 -5.1373
C 22.8166 12.2208 -4.86395
C -3.24267 9.16094 28.6802
C -3.5085 8.53031 29.7025
42
Atoms. Timestep: 140000
C -0.461495 3.63201 5.74614
C -1.4001 2.98904 6.14943
H -31.0681 -26.2838 -15.3877
C 24.1273 -25.9299 -8.90232
C 23.7013 -27.0079 -9.2467
C -1.62039 -15.5578 -15.0444
C -2.03041 -16.5161 -14.4074
C 4.5526 17.5026 -33.7784
C 4.75542 16.5085 -33.1322
C -32.2542 -21.8744 -2.39388
C -33.1082 -22.2537 -1.64333
C -31.7795 -27.0982 -15.4602
C -32.5797 -27.9759 -15.579
C -0.607346 22.1672 -38.2906
C 0.504806 22.0726 -38.787
C -2.58309 -17.5838 -13.82
C -3.09744 -18.5381 -13.2638
C 38.225 -27.1015 37.6327
C 37.7421 -26.4085 38.5261
C 38.5757 -27.9723 36.7391
C 38.8082 -28.8436 35.9085
C -29.691 -8.20906 -14.1608
C -29.532 -8.18335 -12.9406
H -10.7707 13.8989 -16.5075
C 15.3714 16.881 32.5729
C 15.6249 17.9896 32.0246
C 5.71779 -36.6188 -9.57182
C 5.70362 -37.7243 -10.1296
C -37.8026 6.99735 -8.19976
C -38.6751 7.10657 -7.38299
C -34.8224 31.0114 12.9987
C -34.1599 31.0339 12.0066
C -18.4681 -9.51036 13.5578
C -19.6191 -9.3165 13.9235
C 19.6761 24.6484 24.2669
C 20.0139 25.5782 23.5226
C 19.5841 36.6445 8.62543
C 19.8463 36.0958 7.61306
C 19.191 14.6401 -6.43179
C 18.2738 15.3121 -6.83454
C 1.64537 4.57449 27.2343
C 1.82159 4.07874 26.115
42
Atoms. Timestep: 160000
C -1.86224 7.34935 -0.130297
C -2.38223 6.5502 0.618761
H -34.3436 -23.6039 -10.0204
C 32.2453 -27.2709 -19.25
C 31.838 -28.2905 -19.7644
C -8.99448 -19.9271 -11.8711
C -9.22531 -18.7841 -11.595
C 3.4295 3.76321 -35.088
C 2.61525 4.52192 -34.5603
C -38.0653 -21.5108 0.525433
C -36.9071 -21.2082 0.335407
C -33.8138 -24.2631 -9.36332
C -33.2938 -25.0068 -8.5932
C 7.32587 34.8571 -40.0061
C 8.41705 34.6451 39.5241
C -9.4802 -17.5161 -11.3516
C -9.85683 -16.3885 -11.0949
C -37.198 -26.5369 39.3355
C -38.1317 -25.7624 39.071
C -36.3316 -27.3847 39.5962
C -35.3988 -28.2052 39.8782
C -31.9463 -5.08703 -14.1996
C -32.1289 -6.15825 -13.6371
H -28.086 5.18642 29.2093
C 10.5527 14.378 29.3468
C 10.0028 15.37 28.7599
C 13.7605 -33.1722 -11.7746
C 14.1499 -34.02 -11.0276
C -38.9684 6.71651 0.456109
C -39.8816 7.02225 1.17917
C -38.5678 33.8871 4.43799
C -38.6117 32.9601 3.70468
C -15.1408 -7.38806 9.11781
C -16.1329 -6.88716 9.70014
C 12.5562 25.3404 19.7377
C 12.4023 24.6747 20.7893
C 26.3102 28.7057 10.2282
C 25.4419 29.2321 10.973
C 14.0417 17.178 -7.90098
C 14.0704 18.1287 -8.63638
C 6.81008 -0.789509 24.0772
C 6.89364 0.38823 24.2294
42
Atoms. Timestep: 180000
C -1.71327 4.08256 -5.16614
C -1.82101 2.92355 -5.48931
H -36.3553 -22.602 -2.88368
C -39.6209 -28.6283 -29.6306
C 40.0009 -29.5636 -30.303
C -17.6386 -18.6791 -7.44772
C -16.8807 -19.1029 -8.34776
C 1.17141 -8.96326 -35.6612
C 1.6016 -8.54402 -36.7321
C 38.2677 -20.5733 3.06288
C 37.1257 -20.7331 2.70808
C -35.46 -22.0132 -2.6291
C -34.5104 -21.2961 -2.35767
C 15.2841 -32.4124 38.2706
C 16.3453 -32.7578 37.834
C -16.0484 -19.4506 -9.28583
C -15.2877 -19.8146 -10.1807
C -32.184 -26.4179 -38.8034
C -32.4858 -26.3102 39.9882
C -31.6502 -26.385 -37.6649
C -31.1006 -26.3331 -36.541
C -34.3171 -2.5948 -13.9108
C -34.6229 -3.49006 -14.6632
H 34.5512 -3.52597 -5.16623
C 5.59757 12.0623 25.9956
C 4.49018 12.5499 25.6034
C 22.0734 -30.2332 -13.4926
C 22.3688 -29.7898 -12.4185
C 39.8484 6.42965 9.15239
C 38.9234 6.9411 9.74575
C 37.6711 36.2764 -4.56226
C 36.9309 35.3851 -4.20136
C -11.8934 -5.2382 4.70021
C -12.5493 -4.47362 5.43198
C 5.11398 24.7433 17.2033
C 5.07491 25.0599 16.0426
C 31.4462 21.715 13.2021
C 32.6596 21.3821 12.9748
C 8.92116 20.0454 -9.62779
C 9.81393 20.6297 -10.1891
C 12.1142 -4.40743 21.1333
C 11.8527 -5.07177 22.1176
42
Atoms. Timestep: 200000
C 0.583988 -0.0169739 -6.68208
C 1.78391 -0.0811823 -6.71285
H -36.1013 -19.9921 5.04023
C -31.2305 -29.9066 -40.1215
C -31.7138 -30.7482 39.1532
C -22.6223 -19.2402 -7.2923
C -23.214 -20.0081 -6.4983
C -0.484316 -21.1884 -37.737
C -0.0315959 -22.2468 -37.4155
C 32.3572 -19.964 5.0014
C 33.3573 -19.9235 5.70096
C -36.3628 -19.1629 4.36049
C -36.6825 -18.2877 3.63224
C 23.2854 -19.5947 36.5348
C 24.3139 -20.1148 36.1387
C -23.9184 -20.746 -5.75103
C -24.5476 -21.5075 -5.01393
C -26.7182 -26.1966 -36.4146
C -26.2544 -26.9761 -37.2182
C -27.294 -25.3694 -35.5621
C -27.7045 -24.6296 -34.6749
C -36.889 -0.639445 -14.0892
C -36.9413 -0.257871 -15.226
H 17.0927 -12.2438 -39.7271
C 0.429432 9.76411 22.5882
C -0.864421 9.68523 22.469
C 30.605 -27.0243 -14.5867
C 30.4557 -25.7916 -14.4495
C 38.6296 6.14002 17.9246
C 37.7518 6.85804 18.3274
C 33.4259 38.0698 -13.4258
C 32.9145 38.4312 -12.3329
C -8.4815 -2.94302 0.272679
C -8.65003 -2.03372 1.05754
C -2.43049 24.7978 12.3584
C -2.22783 24.7923 13.568
C 38.8741 14.0655 15.7666
C 37.6503 14.1122 15.4122
C 4.05487 23.0365 -11.4825
C 5.25396 23.0351 -11.6311
C 17.0802 -8.94562 19.5654
C 17.2039 -9.6592 18.6034
42
Atoms. Timestep: 220000
C 4.0054 -3.54161 -3.943
C 3.08571 -3.8898 -4.63307
H -36.618 -15.2958 11.2275
C -22.2921 -30.9274 29.4764
C -23.2382 -31.5369 29.0193
C -30.4761 -23.3482 -3.48065
C -30.5628 -22.1066 -3.57021
C -1.49052 -34.7217 -39.3376
C -2.27089 -34.2991 -38.5377
C 28.2621 -19.3493 8.35082
C 27.9028 -19.1382 7.21718
C -37.5094 -15.7023 10.7044
C -38.5073 -16.1449 10.234
C 31.1785 -6.99657 34.8304
C 32.1799 -7.58843 34.4572
C -30.6146 -20.8354 -3.50466
C -30.7205 -19.6075 -3.43494
C -21.9926 -25.7901 -33.5341
C -21.0454 -26.6412 -33.4291
C -22.9406 -24.9432 -33.8266
C -23.7585 -24.1739 -34.2706
C -39.4506 1.54045 -14.9263
C -39.2054 2.68128 -15.1203
H -0.13522 -20.8465 6.16837
C -4.92452 7.57952 19.1507
C -5.89428 6.77516 19.451
C 38.9539 -23.0757 -15.5073
C 38.506 -22.6284 -16.613
C 37.4713 6.04184 26.4579
C 36.6386 6.86036 26.7347
C 28.9833 -39.9082 -21.5676
C 29.2045 -38.8151 -20.9618
C -10.0854 2.07708 -5.46146
C -8.95633 1.87517 -4.98225
C -9.45135 24.9099 9.90275
C -9.85815 24.4699 8.80081
C -36.0251 6.41826 17.6596
C -35.2833 6.76525 18.639
C -0.327636 26.1171 -13.4643
C 0.334665 25.2798 -12.9025
C 22.185 -14.4178 16.5181
C 22.2801 -13.1922 16.6356
42
Atoms. Timestep: 240000
C 6.52372 -4.11081 -0.0257074
C 6.70752 -3.17008 0.698716
H -39.6958 -11.5994 16.2329
C -13.2541 -32.0453 18.7752
C -14.4429 -32.2669 18.703
C -38.8182 -21.5862 0.346394
C -38.0956 -22.2241 -0.371604
C -3.63334 32.0324 -39.8416
C -3.45063 32.7538 39.1787
C 23.2868 -18.174 10.4844
C 23.6189 -18.3991 11.6362
C -39.4964 -12.5081 16.8288
C -39.3482 -13.5094 17.4743
C 39.8077 4.84213 32.9989
C -39.2564 5.33964 32.4468
C -37.4202 -22.9471 -1.19012
C -36.7781 -23.6405 -1.95915
C -17.5107 -25.0062 -30.8908
C -16.9667 -25.0584 -29.8145
C -18.091 -24.9242 -32.0792
C -18.5069 -24.9075 -33.2592
C 38.0776 4.48491 -15.9251
C 38.3261 4.97742 -14.8702
H -17.7779 -29.5868 -28.7962
C -10.4759 5.11696 15.7411
C -10.9733 4.02209 16.2519
C -32.7678 -18.8279 -17.1424
C -32.9838 -19.5955 -18.1349
C 35.6389 7.33538 35.0489
C 35.1323 6.51834 35.7789
C 24.5119 -37.1168 -29.3972
C 25.3298 -36.7174 -30.3012
C -11.671 7.3403 -10.6317
C -11.1158 6.30584 -10.8138
C -17.3833 24.278 5.20085
C -16.9253 24.8866 6.10839
C -29.1775 -0.921425 21.3378
C -29.721 -1.34068 20.2857
C -4.90052 28.899 -15.1961
C -4.61512 27.9497 -14.5011
C 27.3108 -18.5994 12.6231
C 27.0596 -18.7105 13.8249
42
Atoms. Timestep: 260000
C 4.12396 -3.14997 4.14117
C 4.2894 -4.20662 3.60013
H 37.7191 -10.673 23.1586
C -4.33637 -33.1921 8.03565
C -5.47597 -32.9733 8.36447
C 36.208 -23.1263 0.585743
C 35.4055 -23.5308 1.45134
C -5.53023 19.7808 38.2653
C -4.88589 18.7367 38.2763
C 24.6608 -18.2214 17.7214
C 24.3763 -18.0211 16.5641
C 38.6391 -10.2232 23.5666
C 39.6382 -9.71441 23.9798
C -27.9882 12.9529 30.2999
C -28.9452 13.655 30.554
C 34.5791 -23.8964 2.36711
C 33.8743 -24.3577 3.26853
C -13.2998 -24.3684 -28.6712
C -13.587 -23.5154 -27.8678
C -12.9506 -25.1207 -29.7054
C -12.6257 -25.827 -30.6029
C 35.7778 7.79956 -16.1788
C 35.6713 6.91849 -15.3675
H -34.2399 -31.2993 14.3073
C -16.0458 2.52486 12.3853
C -16.0644 1.38351 12.9798
C -24.5612 -14.9359 -19.2349
C -24.3535 -16.1858 -19.2087
C 31.4978 11.7157 -35.7945
C 30.6521 11.5044 -34.9529
C 20.8372 -33.9422 -38.1616
C 20.6343 -34.9889 -38.7553
C -13.0139 12.1449 -15.9035
C -13.5248 11.222 -16.5732
C -24.4088 24.8732 2.34424
C -24.9421 24.0755 1.54935
C -23.3671 -9.13193 22.911
C -23.0857 -8.62036 24.0527
C -9.52244 31.6359 -16.8877
C -9.54335 30.6803 -16.1495
C 26.4832 -22.1124 7.06898
C 26.404 -23.3364 7.0607
42
Atoms. Timestep: 280000
C 0.243062 -3.61286 5.74059
C -0.730911 -3.09653 6.2073
H 37.667 -8.48349 31.1117
C 4.31971 -34.2962 -2.51064
C 3.49621 -33.696 -1.86506
C 27.3709 -26.4774 5.23553
C 27.6136 -25.2959 5.08926
C -6.49314 6.24161 36.4089
C -7.20735 6.38386 37.3772
C 26.639 -18.266 22.2229
C 26.4254 -18.5937 23.3803
C 37.6456 -7.54198 30.5702
C 37.5853 -6.51002 29.935
C -17.3338 21.9826 27.9995
C -17.4167 20.8194 28.334
C 27.8252 -24.0099 4.93757
C 28.0351 -22.8041 4.72405
C -8.9789 -23.9597 -26.9946
C -9.75777 -23.0834 -27.1421
C -8.055 -24.8971 -26.9034
C -7.33381 -25.8652 -26.7428
C 33.4369 10.468 -15.8911
C 33.1286 9.43038 -16.3953
H 29.6262 -32.709 -22.0597
C -21.6511 -0.155949 9.12926
C -20.9673 -1.09135 9.70315
C -16.3782 -11.7481 -21.324
C -15.9409 -12.1766 -20.2405
C 27.2707 15.946 -26.6066
C 26.3913 16.5026 -25.9857
C 16.9956 -31.7223 32.7502
C 16.2258 -32.3759 33.3614
C -14.5776 16.3316 -21.4658
C -15.6592 16.6167 -21.8837
C -32.3636 23.8944 -1.93388
C -31.8139 24.8415 -1.48183
C -17.2492 -16.214 26.6559
C -16.9364 -16.8063 25.5714
C -13.8433 34.1902 -18.474
C -14.6357 33.5151 -17.8554
C 25.188 -26.8127 1.10456
C 25.1251 -26.4874 -0.0659926
42
Atoms. Timestep: 300000
C -5.16846 -1.87084 4.27413
C -4.10846 -2.42054 4.37899
H 37.5162 -3.81987 37.7474
C 12.9287 -35.3336 -13.0417
C 12.6216 -34.4963 -12.2348
C 20.2759 -23.5893 7.85058
C 20.8774 -24.6916 7.73241
C -8.47676 -7.15865 35.8997
C -8.52787 -6.26372 35.1144
C 28.3076 -18.9256 29.0085
C 28.8085 -18.5549 27.9807
C 36.6011 -4.06213 37.1442
C 35.5733 -4.27538 36.5123
C -6.72398 29.3774 26.1656
C -5.71032 29.7161 25.6202
C 21.4433 -25.8367 7.57141
C 21.9962 -26.9044 7.56519
C -4.21977 -24.0417 -25.2617
C -4.7258 -23.7419 -26.3009
C -3.66923 -24.3237 -24.085
C -3.06271 -24.6657 -23.0163
C 30.8824 12.4808 -15.9278
C 30.7702 12.6291 -17.1032
H 12.7323 -32.9746 21.3718
C -27.1662 -2.97477 5.93267
C -26.0236 -3.45924 6.32765
C -7.90242 -8.73812 -22.8027
C -7.7213 -7.94625 -21.9014
C 22.8375 20.3358 -17.2423
C 22.2855 21.397 -17.0857
C 12.5999 -30.0316 24.028
C 12.3772 -29.3013 25.0084
C -16.7692 20.7218 -27.2938
C -17.1879 21.8656 -26.9941
C -39.2588 24.8071 -5.29475
C -39.8347 23.7147 -5.47427
C -10.5973 -24.4719 28.3111
C -11.2472 -23.9084 29.2115
C -18.4064 36.6877 -19.9873
C -19.5425 36.4391 -19.6541
C 22.428 -31.8245 -5.34394
C 22.1495 -30.6378 -5.13279
42
Atoms. Timestep: 320000
C -6.73384 0.60035 2.72032
C -6.55362 1.62007 3.32803
H 35.1115 0.232137 -37.0899
C 21.4006 -36.2613 -23.3547
C 21.6747 -35.3846 -22.5761
C 16.3032 -26.5597 9.83293
C 15.2281 -26.0902 10.0838
C -10.5097 -19.1493 34.3003
C -9.76005 -20.0134 33.9744
C 31.0621 -18.8556 33.8537
C 30.0577 -19.2384 34.387
C 34.8325 -0.781755 -36.7886
C 34.5108 -1.86199 -36.4417
C 5.22512 37.1596 23.5692
C 4.39345 38.0332 23.7227
C 14.0698 -25.6427 10.4565
C 12.9888 -25.1953 10.7763
C 0.796175 -24.1922 -22.9831
C 0.993556 -24.8202 -24.0769
C 0.524451 -23.6275 -21.8301
C 0.238533 -23.1129 -20.7624
C 28.2923 14.5795 -16.6956
C 28.5054 15.6805 -17.0712
H -9.31496 -16.8839 -6.98816
C -32.4301 -5.87653 2.85765
C -31.2063 -5.68296 2.90816
C 0.583904 -5.31238 -23.7288
C 0.290726 -4.21713 -24.0779
C 18.3178 24.8916 -7.93306
C 18.367 26.0157 -8.34612
C 8.34806 -28.5612 15.7193
C 8.93279 -27.4342 15.789
C -19.2326 25.7751 -32.8838
C -18.401 26.3376 -32.2134
C 32.8332 23.6103 -8.88875
C 33.3335 24.7001 -9.14678
C -5.40665 -31.5958 31.5336
C -4.24247 -31.9632 31.2218
C -23.1372 38.9646 -21.3079
C -24.1698 39.5197 -21.6063
C 19.4429 -35.5027 -11.4056
C 19.526 -35.9547 -10.2722
42
Atoms. Timestep: 340000
C -4.79224 4.81147 0.858377
C -4.97607 4.35441 -0.241367
H 31.9937 2.00594 -31.0784
C 29.959 -37.0902 -33.6401
C 30.7525 -36.3832 -33.0759
C 5.74151 -28.0716 13.812
C 6.65618 -27.3668 13.4482
C -11.5034 -32.4306 32.2351
C -12.0522 -32.6357 33.2829
C 31.9902 -19.5135 39.8168
C 33.1588 -19.1979 39.7468
C 32.8234 1.73873 -30.4221
C 33.7294 1.54073 -29.6803
C 16.051 -33.7578 21.1797
C 15.7603 -34.848 21.5897
C 7.61175 -26.5969 13.0614
C 8.49604 -25.9228 12.5599
C 5.66121 -24.1371 -20.2073
C 6.53292 -25.0172 -20.3731
C 4.7526 -23.2242 -20.0714
C 3.95182 -22.3477 -19.9321
C 25.8146 17.3612 -17.7011
C 26.0975 18.0851 -16.8034
H -31.4711 -0.603488 -35.3677
C -37.5456 -8.72507 -0.251792
C -36.6037 -7.99241 -0.5181
C 8.93357 -1.19477 -24.9069
C 8.54405 -1.1345 -26.022
C 13.796 29.7234 1.33008
C 14.3971 30.4166 0.553998
C 6.46155 -25.5078 6.86777
C 6.98837 -25.1476 5.75213
C -21.164 31.1879 -38.0869
C -20.1694 30.5105 -37.8881
C 25.8655 24.5502 -12.9869
C 25.4678 23.5435 -12.3641
C 1.91634 -39.4802 34.1072
C 0.707272 -39.3536 33.9142
C -28.159 -38.5247 -22.7732
C -28.5653 -37.5995 -23.4347
C 16.5323 -39.7104 -16.2559
C 16.7923 39.201 -16.694
42
Atoms. Timestep: 360000
C -2.35853 6.36267 0.655385
C -2.08397 6.68268 1.78977
H 31.0185 3.17477 -23.0978
C 38.743 -37.8446 35.9929
C 39.8628 -37.483 36.2019
C -1.35851 -26.3944 15.3339
C -1.20739 -27.6041 15.2113
C -13.2956 33.8001 31.637
C -13.594 34.8509 31.084
C 35.2085 -19.5111 -34.5027
C 34.0286 -19.8267 -34.4452
C 31.4926 4.1333 -23.3621
C 32.0453 5.20898 -23.5783
C 26.6188 -26.1546 19.3555
C 27.7099 -26.0129 18.8253
C -1.08839 -28.93 15.035
C -0.991841 -30.1524 14.9586
C 10.3169 -23.5558 -17.3645
C 10.9764 -24.0543 -16.4336
C 9.49352 -23.2056 -18.3369
C 8.72591 -22.8687 -19.2476
C 22.8558 21.6169 -17.6048
C 22.5997 20.9842 -16.6348
H 26.0486 15.9151 15.8376
C 37.3072 -11.4865 -3.4687
C 37.8768 -10.4644 -3.93251
C 17.208 2.95816 -26.6934
C 17.1155 2.01814 -27.4035
C 9.34681 34.726 10.5691
C 10.2304 34.7817 9.74392
C 6.25787 -21.8091 -0.849146
C 5.93209 -22.8409 -1.44957
C -22.6015 36.282 36.7194
C -22.4858 35.1423 36.2687
C 18.6809 22.577 -16.5034
C 19.1015 23.4046 -17.2833
C 6.95656 32.8614 36.5218
C 8.11935 32.8063 36.8426
C -33.077 -35.8078 -24.4125
C -33.2026 -34.846 -25.1372
C 13.784 35.1685 -21.5989
C 13.8137 35.1375 -22.788
42
Atoms. Timestep: 380000
C 0.436396 6.68113 0.558553
C 0.980563 6.53724 -0.514709
H 31.3887 7.03348 -15.7868
C -32.3672 -38.555 25.6806
C -31.1863 -38.6214 25.488
C -7.84416 -30.1646 16.2993
C -8.87861 -29.7774 16.7781
C -15.5181 21.5704 30.2678
C -14.6954 20.8766 29.6644
C 36.0712 -20.1241 -28.7764
C 37.2418 -19.8384 -28.7173
C 30.5948 7.38334 -16.472
C 29.8246 7.77761 -17.2915
C 38.7488 -18.3751 16.7643
C 38.03 -17.4031 16.8416
C -9.99259 -29.365 17.2897
C -10.9848 -28.8792 17.7952
C 14.5153 -22.9019 -14.9931
C 14.5219 -22.4095 -13.8529
C 14.4478 -23.454 -16.1018
C 14.5864 -23.8805 -17.2612
C 16.4384 25.4239 -17.1096
C 16.3835 24.6598 -18.0117
H 3.63553 32.3844 -12.871
C 32.2366 -14.1219 -6.73001
C 32.3126 -13.0469 -7.2827
C 25.4114 6.67252 -28.8091
C 25.7076 5.58753 -28.4462
C 5.06268 39.7356 19.6348
C 5.9243 39.1119 19.0521
C 5.74986 -19.0417 -9.02046
C 5.1854 -19.6232 -8.14128
C -23.9502 -39.1942 31.3358
C -24.8798 -39.6846 30.6482
C 15.5144 22.2527 -20.2549
C 14.9539 21.2737 -20.7966
C 14.2887 25.157 39.6474
C 13.2023 25.0587 39.044
C -38.0386 -33.057 -26.072
C -37.7676 -32.1427 -26.8096
C 11.0681 30.0215 -27.6936
C 10.8199 31.1275 -28.0961
42
Atoms. Timestep: 400000
C 4.59106 4.75677 1.976
C 4.0939 5.65903 1.34171
H 29.7136 11.8617 -10.3157
C -23.342 -39.2681 15.379
C -22.3766 -39.7495 14.8419
C -18.9528 -32.1029 19.476
C -18.1224 -31.2323 19.1769
C -16.5682 8.38097 28.0392
C -16.9636 7.90692 29.1092
C 39.2718 -20.1714 -22.9146
C 38.11 -20.4145 -23.1446
C 29.0844 10.9529 -10.2424
C 28.3933 9.93478 -10.2134
C -30.1982 -9.19347 14.2944
C -30.6114 -10.2236 14.7445
C -17.2166 -30.397 18.7498
C -16.4056 -29.5503 18.3699
C 18.8558 -22.3428 -13.0735
C 18.0235 -21.4956 -12.82
C 19.5218 -23.405 -13.4051
C 20.197 -24.3658 -13.7523
C 9.03877 24.8325 -22.0806
C 8.86383 24.9588 -20.8929
H -18.7391 -31.1746 38.4696
C 27.2067 -16.6801 -10.0197
C 26.7259 -15.6975 -10.5931
C 33.7401 9.8568 -30.7569
C 34.1457 9.6745 -29.6515
C 0.944623 -35.3742 28.5763
C 1.4669 -36.4545 28.4531
C 4.7925 -16.7505 -16.4885
C 4.89022 -15.9397 -15.5108
C -25.8098 -34.9273 25.5766
C -26.7812 -34.2755 25.3798
C 12.4841 23.8746 -20.5068
C 12.99 24.9631 -20.8249
C 19.4905 17.2851 -38.3864
C 20.3942 17.505 -37.6043
C 36.998 -30.2466 -27.7768
C 37.6854 -29.5084 -28.4309
C 8.18408 25.6538 -34.0661
C 8.00403 26.3538 -33.1069
42
Atoms. Timestep: 420000
C 5.23878 2.32389 4.53715
C 4.11046 1.98007 4.80513
H 26.4762 14.3031 -4.78203
C -14.3395 39.9765 5.18425
C -13.8124 39.1964 4.43365
C -23.9925 -30.381 19.945
C -24.8571 -31.1964 20.3246
C -18.1443 -5.27836 27.3362
C -18.6542 -4.18702 27.0715
C -39.7451 -20.6166 -17.8064
C -38.8673 -20.5832 -16.9956
C 27.0618 13.6939 -4.0699
C 27.6532 13.0257 -3.29712
C -19.9289 -1.63103 12.517
C -18.8167 -1.67874 12.0257
C -25.7306 -32.0334 20.7594
C -26.5879 -32.823 21.1814
C 22.7884 -23.4906 -11.1325
C 21.9028 -24.1284 -11.6403
C 23.8435 -22.7291 -10.7642
C 24.7427 -22.0131 -10.4033
C 6.17555 24.6959 -24.1265
C 6.59482 23.9105 -24.9238
H 39.2335 -14.9898 10.2543
C 22.8055 -17.6018 -14.0449
C 22.2354 -18.1311 -13.1606
C -37.8281 12.8144 -32.0752
C -37.7795 13.8754 -31.4374
C -2.97415 -30.7692 37.3239
C -3.05675 -31.8804 37.7633
C 3.93237 -13.9741 -23.2756
C 4.51723 -12.8339 -23.331
C -28.6248 -30.9442 20.2915
C -29.6922 -30.602 20.8434
C 5.85472 27.9568 -21.4625
C 5.14705 27.0067 -21.7988
C 26.1962 10.0321 -34.854
C 25.8901 9.57173 -35.9012
C 32.0641 -27.2075 -29.6589
C 33.2566 -27.1873 -29.8233
C 5.16836 22.0447 -39.4604
C 5.40825 20.9633 -38.9193
42
Atoms. Timestep: 440000
C 2.47569 -2.2492 5.63417
C 3.63891 -1.9308 5.66985
H 24.6831 15.2537 2.5903
C -5.18976 39.1253 -5.19475
C -5.22462 38.2205 -5.99071
C -31.6731 -34.8666 23.5143
C -30.8514 -34.0588 23.0355
C -20.4474 -17.533 26.2431
C -19.6496 -17.936 25.3972
C -36.9801 -20.9554 -11.195
C -37.5876 -20.8642 -12.2404
C 25.4586 15.984 2.76268
C 26.343 16.7514 2.93662
C -7.95639 5.94583 10.0115
C -8.51075 7.00835 9.99125
C -29.9851 -33.2239 22.5737
C -29.1727 -32.4998 22.0671
C 24.7589 -24.2686 -9.83174
C 23.7217 -24.467 -10.4735
C 25.8299 -24.0475 -9.14755
C 26.9661 -23.8358 -8.65286
C 3.42194 26.4924 -25.0703
C 3.93787 25.8454 -25.9161
H 16.992 1.35157 -18.2357
C 22.1276 -18.0879 -14.7521
C 22.7774 -17.5345 -15.7453
C -29.2848 16.4278 -33.0271
C -29.6557 17.49 -33.6198
C -6.97128 -26.3507 -33.7309
C -7.58414 -27.0304 -32.9485
C 3.36763 -10.5423 -30.0998
C 3.83686 -10.3264 -31.2562
C -37.694 -24.1081 14.5772
C -36.6572 -24.6734 14.1608
C -1.26885 28.054 -25.118
C -2.11404 28.167 -24.2913
C 32.2805 1.86292 -33.2572
C 32.126 2.407 -32.2117
C 27.4001 -24.2434 -31.5184
C 28.4668 -24.7391 -31.2701
C 2.37832 17.2499 35.6818
C 2.53222 16.6711 34.6229
42
Atoms. Timestep: 460000
C -0.13013 -5.10192 5.6504
C -0.221554 -4.97871 4.4532
H 24.9578 18.1943 10.4885
C 4.00137 38.1657 -15.7161
C 3.4082 37.3441 -16.3741
C -34.4893 -34.5083 24.1431
C -35.3046 -35.2461 24.7212
C -21.6297 -30.4279 23.9527
C -21.782 -31.1716 24.9068
C -35.4554 -21.1414 -6.56598
C -35.0478 -21.301 -5.44739
C 24.5428 18.8897 9.77215
C 24.1569 19.7242 9.01603
C 3.25923 15.117 7.46532
C 2.66068 14.1804 7.9754
C -36.2439 -36.0102 25.2677
C -37.0156 -36.7573 25.8213
C 26.7205 -24.8149 -8.59508
C 25.7105 -24.5902 -9.25405
C 27.7731 -25.1033 -7.90292
C 28.8328 -25.3741 -7.27126
C -2.39426 30.967 -24.4377
C -2.21483 29.9317 -25.0509
H -5.3563 17.7709 33.1315
C 22.8374 -18.0283 -16.9666
C 22.2088 -18.498 -16.0582
C -20.8927 20.612 -34.2914
C -21.2994 20.5691 -35.5051
C -11.1132 -22.0344 -24.5871
C -12.0083 -22.0331 -23.77
C 3.12115 -6.96534 -37.7789
C 2.83217 -7.93516 -38.3983
C 35.6467 -18.4939 8.07343
C 34.6464 -17.8434 8.46846
C -6.20503 26.0878 -29.3431
C -5.10063 26.5857 -29.6877
C 38.1516 -5.29209 -29.6062
C 38.635 -5.84664 -30.5507
C 22.8035 -21.3777 -33.3115
C 23.5636 -22.1661 -32.7995
C -0.29878 11.9604 29.8717
C -0.48449 12.8294 29.0626
42
Atoms. Timestep: 480000
C -2.67265 -6.30878 3.79807
C -2.50442 -5.7686 2.7229
H 24.2495 23.0341 16.5355
C 13.1273 37.1095 -26.3185
C 12.1129 36.5635 -26.6842
C 37.6633 -38.6932 28.0981
C 38.4408 -37.9318 27.5534
C -23.0382 35.6277 23.0203
C -23.6893 36.6327 23.0573
C -33.1139 -21.6427 0.286363
C -33.3233 -21.4227 -0.873491
C 23.3276 22.4963 16.2
C 22.3515 21.8389 15.8375
C 13.6079 22.9329 5.65939
C 14.7073 22.7137 5.2176
C 39.3258 -37.2204 26.8863
C -39.8622 -36.5521 26.1815
C 28.7465 -25.4404 -7.27899
C 27.9433 -24.7467 -7.95892
C 29.5845 -26.1621 -6.57068
C 30.5243 -26.7952 -6.13409
C -7.38545 35.2157 -23.8367
C -7.98659 34.3196 -23.1885
H -27.6938 34.1765 4.45474
C 22.2319 -18.9497 -17.2815
C 22.9569 -18.4839 -18.2679
C -12.7147 24.7889 -36.1722
C -12.8149 23.7329 -36.8577
C -15.425 -17.7181 -15.2857
C -16.2658 -17.0324 -14.7424
C 2.6586 -4.10295 34.0903
C 2.04308 -4.8271 34.9057
C 26.99 -11.5813 2.3552
C 27.9418 -12.3073 1.98612
C -9.94874 23.956 -34.9439
C -10.401 25.0214 -34.5941
C -35.0419 -13.5351 -27.8071
C -35.7867 -13.018 -27.0357
C 18.2665 -18.58 -35.0597
C 18.5971 -19.523 -34.375
C -3.12314 7.34871 23.4486
C -3.35765 8.30811 24.1137
42
Atoms. Timestep: 500000
C -4.73267 -4.64286 0.869213
C -4.15695 -5.67949 0.683586
H 20.9173 26.3463 21.6711
C 22.2428 35.9769 -37.0886
C 21.0373 35.838 -37.0722
C 34.6998 -38.6511 28.3034
C 33.8721 -39.299 28.9866
C -25.3933 22.9751 22.1105
C -24.689 22.8381 21.1525
C -31.3541 -21.765 4.92668
C -30.9695 -21.9308 6.04666
C 21.2269 25.5746 22.3935
C 21.6157 24.6822 23.1315
C 25.7078 30.5413 3.17086
C 25.2658 31.6467 3.08879
C 33.0878 -39.9529 29.7737
C 32.278 39.5372 30.5244
C 30.8463 -26.1589 -6.01126
C 30.2409 -25.1705 -6.46835
C 31.4675 -27.0977 -5.37211