21
Atoms. Timestep: 0
C -12.8086 -26.7517 -10.9654
C -12.5363 -25.5802 -11.0022
H 3.68036 15.7893 10.275
C -28.2582 35.9105 -24.8323
C -29.4564 35.8661 -24.9419
C 28.3167 17.3042 1.06999
C 28.0619 18.462 0.862865
C -29.9124 8.79498 11.7693
C -30.014 7.85667 12.5192
C -6.18116 13.8425 -8.62123
C -5.4028 14.5827 -9.17074
C 37.109 -24.8302 -35.654
C 37.2665 -25.753 -36.4212
C -22.7198 25.1688 -19.046
C -23.5437 25.3602 -19.8969
C -22.6722 8.15968 -8.94161
C -23.8218 8.20384 -9.27638
C -28.0441 -3.75046 4.7398
C -29.2372 -3.65541 4.8156
C -19.6965 36.8323 32.6413
C -19.7303 36.2841 33.7384
21
Atoms. Timestep: 20000
C -10.32 -30.912 0.418243
C -10.7168 -31.9626 -0.0371272
H -34.2173 25.8248 -0.754719
C -23.2696 30.9415 -34.7735
C -23.8528 30.0862 -34.1633
C 11.4356 22.1266 3.96873
C 12.4571 21.5647 3.61908
C -29.7736 -5.35585 14.1235
C -29.2055 -4.98149 13.1302
C -11.9336 15.3894 -12.9138
C -11.5078 16.3191 -13.5384
C 34.8435 -21.7878 -34.1768
C 34.7032 -22.9734 -34.0649
C -19.5624 39.6591 -23.642
C -19.6756 39.5853 -22.4441
C -23.3786 4.19502 -15.506
C -24.1758 3.37059 -15.9127
C -29.2199 2.41869 -2.23074
C -29.2406 1.70345 -1.23848
C -3.39879 36.3552 -32.9307
C -4.30879 35.7239 -33.3751
21
Atoms. Timestep: 40000
C -8.59147 -37.072 10.9192
C -8.14435 -36.3277 11.7732
H 7.94857 35.8434 -11.7659
C -18.5964 25.5266 35.6263
C -17.9515 24.77 36.3066
C -3.81441 26.053 6.3158
C -4.72442 25.5502 6.91748
C -28.6177 -18.7967 14.6846
C -29.4157 -18.4844 15.5293
C -17.6665 16.9899 -17.235
C -17.6126 17.9963 -17.8629
C 32.5365 -19.1373 -32.6674
C 32.1894 -19.8117 -31.7473
C -16.5965 -25.9971 -26.2475
C -15.6281 -26.0911 -26.97
C -24.3214 -0.0218668 -22.1832
C -24.2917 -1.19568 -22.414
C -30.4113 7.87512 -8.21566
C -29.2264 7.75569 -8.25634
C 11.8774 35.1886 -19.011
C 12.081 35.855 -20.026
21
Atoms. Timestep: 60000
C -6.00383 38.1513 23.098
C -6.41593 37.8869 21.984
H -30.0178 -34.1028 -22.8172
C -13.5654 19.6816 26.361
C -12.3707 19.8462 26.3745
C -20.5525 29.1942 9.62143
C -20.5318 30.3486 9.27716
C -28.8956 -31.6995 16.7549
C -28.1887 -32.62 16.4296
C -23.3929 18.6503 -21.6081
C -23.7653 19.6251 -22.1658
C 30.1102 -16.6764 -30.8529
C 29.7781 -16.44 -29.7213
C -12.0128 -11.7604 -30.0422
C -13.1737 -11.5598 -30.3317
C -25.2759 -4.59735 -28.9566
C -24.3997 -5.43421 -28.8655
C -30.447 13.2349 -14.263
C -30.3719 13.945 -15.2575
C 27.4265 34.7342 -6.13281
C 28.3093 35.2702 -5.53957
21
Atoms. Timestep: 80000
C -4.19813 32.8717 33.164
C -3.90553 32.6043 34.3079
H 12.0154 -24.0489 -33.8685
C -7.87751 13.9277 17.1025
C -7.44685 14.8313 16.4353
C -37.2819 34.1428 12.3342
C -36.3756 33.3572 12.133
C -27.9186 33.7629 18.2479
C -28.2167 34.8788 17.907
C -29.2222 20.3093 -25.7909
C -29.9904 21.101 -26.2524
C 27.5817 -14.1512 -28.6925
C 27.4689 -13.1325 -28.0412
C -9.32595 2.80417 -34.3089
C -8.82246 2.644 -33.2215
C -25.9426 -9.44981 -35.7006
C -24.7954 -9.39587 -35.3465
C -30.3206 19.3567 -21.5132
C -31.5046 19.5268 -21.4626
C -36.0841 34.8313 7.41794
C -36.375 34.1166 8.37156
21
Atoms. Timestep: 100000
C -1.83608 27.079 -34.5913
C -1.94786 27.8259 -35.5282
H -26.1588 -13.9106 34.53
C -1.94775 8.6674 7.46806
C -2.75592 9.31361 6.85592
C 27.9881 37.4407 13.2162
C 27.1625 38.3099 13.3882
C -27.4824 21.2472 19.0934
C -27.7377 20.4476 19.9552
C -34.929 21.6786 -31.4759
C -35.8782 21.6914 -30.7419
C 25.0161 -11.3168 -26.3312
C 25.1927 -10.1292 -26.5587
C -5.81387 17.1194 -36.8055
C -5.29049 17.1212 -37.8874
C -26.2434 -14.2979 37.6998
C -25.5432 -13.3757 38.0624
C -31.5029 26.0446 -26.7064
C -31.7993 25.7302 -27.8379
C -20.5448 34.1477 23.3752
C -21.4566 33.3416 23.4145
21
Atoms. Timestep: 120000
C 0.296904 22.7058 -24.1807
C 0.221787 21.6575 -23.6084
H 23.8495 -5.77632 6.24493
C 3.36074 10.3538 -0.628053
C 3.70333 10.9459 0.360147
C 11.8149 -37.5151 14.333
C 12.4689 -38.5182 14.2604
C -27.4984 7.38428 21.4318
C -26.8312 7.55123 20.4423
C -39.9426 24.1786 -35.2916
C 39.7208 23.0698 -34.9799
C 22.5093 -8.11404 -24.0312
C 22.8735 -7.51348 -25.0275
C -1.50385 31.4154 38.9185
C -2.64959 31.5684 39.2314
C -26.7572 -18.7474 31.9286
C -26.7508 -17.5598 32.0892
C -33.4703 31.6055 -33.5264
C -33.4462 31.0934 -34.6362
C -5.52055 33.0731 39.4107
C -6.25077 32.8306 38.5011
21
Atoms. Timestep: 140000
C 2.28864 16.298 -12.6435
C 2.55578 17.4628 -12.6916
H -6.26169 2.3871 -22.0287
C 9.74767 17.2305 -5.37329
C 8.70433 17.0868 -4.78651
C -3.12125 -34.4254 15.2978
C -3.6352 -33.3456 15.2958
C -26.3161 -6.29808 22.0335
C -27.1181 -5.67597 22.6821
C 34.8084 25.9824 -38.8955
C 35.5471 25.2162 -39.4445
C 20.1027 -4.7404 -22.0411
C 20.4271 -5.03591 -23.1648
C 5.57026 -36.7612 34.2598
C 6.74953 -36.9471 34.1606
C -27.2423 -22.965 26.1628
C -28.0009 -22.023 26.0305
C -35.45 37.1373 39.5387
C -35.1458 36.4969 38.5735
C 5.06094 35.2594 -23.9272
C 4.08529 34.648 -24.33
21
Atoms. Timestep: 160000
C 4.79786 12.0621 -1.13742
C 4.39125 11.0598 -1.66222
H -36.4804 10.5796 29.5982
C 15.2279 24.0009 -9.61819
C 14.6484 23.3781 -10.4705
C -19.1545 -29.1725 16.2704
C -18.7523 -30.3069 16.3305
C -26.5085 -18.9401 23.7396
C -26.0272 -20.0393 23.8273
C 30.0754 27.2333 37.0907
C 30.8239 27.9295 36.4723
C 17.7693 -1.46076 -20.3361
C 17.8902 -2.44358 -21.0034
C 15.0175 -25.3022 29.6977
C 13.9276 -25.2711 29.1735
C -27.9271 -26.9234 20.3458
C -29.0573 -26.7757 19.9811
C -37.4175 -37.3311 32.5643
C -36.8706 -38.0605 31.7741
C 15.3151 37.6168 -7.3464
C 14.7291 36.5642 -7.17481
21
Atoms. Timestep: 180000
C 6.50217 5.89648 9.33202
C 6.94646 6.51813 10.2671
H 13.4385 18.7348 1.35425
C 20.1636 30.1861 -14.5994
C 21.0841 30.1946 -15.3735
C -29.0814 -21.9218 15.6906
C -30.142 -22.5019 15.7899
C -25.8721 -33.4464 25.5172
C -25.8015 -32.4826 24.7963
C 25.8983 28.9833 32.6532
C 25.5878 30.1257 32.8494
C 15.4854 1.5624 -18.8325
C 15.3259 0.378477 -18.6584
C 22.3754 -13.8286 24.2086
C 23.1194 -13.7149 25.1569
C -34.1688 -34.635 15.2641
C -34.2083 -34.4703 16.4607
C -39.3722 -31.8454 25.5813
C -38.5914 -32.6221 25.0459
C 25.4339 39.7313 9.22879
C 25.4132 38.7037 9.8324
21
Atoms. Timestep: 200000
C 9.02528 0.80967 21.6106
C 8.65088 0.764015 20.4564
H -16.7857 26.9288 -27.024
C 25.9469 36.411 -20.2917
C 26.7263 37.0334 -19.6123
C -37.0825 -12.4245 13.9898
C -35.9413 -12.0387 13.8267
C -25.0968 33.616 26.0138
C -25.7239 33.3565 27.0078
C 21.4848 31.5732 28.3301
C 20.5435 31.5008 29.074
C 13.1432 4.28514 -17.2589
C 12.797 3.52876 -16.3649
C 31.1331 -2.07919 20.4889
C 30.99 -2.32517 19.3257
C 36.7261 35.0296 13.1347
C 35.8454 35.5732 12.5372
C 38.7144 -26.3745 18.5514
C 39.6289 -27.1168 18.2994
C 35.5579 -38.3428 25.9687
C 36.191 -38.9479 26.8346
21
Atoms. Timestep: 220000
C 10.8759 -4.36203 31.8206
C 11.0548 -4.97439 32.8578
H 32.7973 35.1751 24.4167
C 32.4086 -36.8054 -25.4464
C 31.763 -36.6033 -24.4521
C 37.1291 -2.13523 11.9465
C 35.9588 -2.24004 12.1825
C -25.376 20.1992 28.1659
C -24.5861 19.502 27.5812
C 16.2892 34.13 24.5748
C 16.2208 32.9342 24.679
C 10.7019 6.87633 -15.4481
C 10.3361 6.84807 -14.2839
C 39.7327 9.28495 14.6014
C 39.1249 9.59758 15.6013
C 26.2996 25.4057 10.1148
C 27.0988 24.7757 9.46549
C 36.8187 -20.8809 11.4955
C 37.8081 -21.5643 11.491
C -34.0998 -36.6217 -36.932
C -33.116 -36.3675 -36.3072
21
Atoms. Timestep: 240000
C 13.0543 -10.6782 -36.0506
C 13.1425 -9.59839 -36.5974
H 2.29644 -36.5559 -4.22139
C 38.3788 -29.849 -29.8428
C 37.3228 -30.3764 -30.0779
C 29.0082 7.98793 10.3677
C 30.1529 7.78006 10.0636
C -24.3938 5.61815 29.3981
C -24.7074 6.73648 29.0818
C 11.0212 35.6634 20.8983
C 11.9443 35.402 20.1828
C 8.18254 9.49249 -13.3986
C 7.9397 10.1587 -12.4309
C -32.7436 21.2359 10.4623
C -31.6183 20.9977 10.102
C 17.0171 14.8307 6.13236
C 17.1554 14.873 7.33954
C 34.9323 -15.3789 4.42758
C 35.9677 -15.9897 4.65653
C -23.424 -34.8335 -19.5819
C -22.6987 -33.8423 -19.6063
21
Atoms. Timestep: 260000
C 15.3514 -14.961 -25.1064
C 15.065 -16.136 -25.1162
H -27.8712 -28.3775 -32.5452
C -36.59 -23.3957 -34.3649
C -36.3046 -23.7909 -35.4681
C 23.2433 17.6468 8.2177
C 22.1436 18.0439 8.5565
C -23.9784 -6.96434 30.1499
C -24.2714 -7.72814 31.033
C 6.54944 36.9859 16.6889
C 6.97603 38.0369 16.3089
C 5.62488 12.1779 -11.1327
C 5.63542 13.3352 -10.837
C -23.2966 32.6108 5.63567
C -24.4684 32.7182 5.39582
C 8.05373 4.41151 3.9098
C 7.09132 5.03063 3.5148
C 33.1103 -9.97948 -2.59048
C 34.1037 -10.4338 -2.07565
C -12.7005 -32.7343 -2.4911
C -12.5599 -31.6753 -3.01893
21
Atoms. Timestep: 280000
C 17.0995 -21.4293 -14.2355
C 17.4979 -20.3892 -13.7667
H 21.7948 -18.1013 20.532
C -31.3344 -17.4536 -39.8894
C -30.2236 -16.9956 -39.8611
C 15.3455 27.9527 6.74795
C 16.3931 27.4785 6.40254
C -24.0415 -20.8199 32.4238
C -23.3646 -20.6725 31.4373
C 2.39014 39.002 12.2746
C 1.78165 39.9421 12.7139
C 3.07707 15.1669 -8.75069
C 3.36575 16.1545 -9.39456
C -16.1731 -35.8961 0.4703
C -15.1468 -35.8907 1.11551
C 13.5007 2.43352 9.32256
C 12.3944 1.94037 9.39852
C 31.3499 -4.66252 -9.54905
C 32.2118 -4.89555 -8.74164
C -2.12999 -30.5276 14.3235
C -2.45886 -29.6548 13.5367
21
Atoms. Timestep: 300000
C 19.6406 -26.0521 -2.2537
C 19.1989 -26.6449 -3.2026
H -9.02852 -6.98658 -6.4388
C -25.0634 -11.0541 34.5401
C -24.9861 -10.5204 35.618
C 9.40252 37.384 4.55311
C 8.48785 38.077 4.92058
C -22.8861 -34.7137 33.0195
C -23.664 -33.9712 33.559
C -2.24587 -38.269 8.09404
C -3.07308 -38.8082 8.76778
C 0.588838 18.4428 -6.5751
C 0.965918 18.772 -7.68964
C -7.07517 -24.1932 -3.45684
C -7.55869 -24.3741 -4.54142
C 23.2171 2.67723 17.6155
C 22.5032 1.70134 17.6394
C 29.5678 0.755562 -16.5513
C 30.288 0.700596 -15.5636
C 8.6318 -28.0329 31.2589
C 7.75382 -27.8604 30.4604
21
Atoms. Timestep: 320000
C 21.328 -31.7786 7.85769
C 21.7084 -31.6807 8.99098
H -39.4167 4.37858 -33.0827
C -18.7769 -4.28657 29.8939
C -19.8871 -4.55075 30.2807
C 1.67844 -31.9607 3.10562
C 2.51166 -32.7626 2.73057
C -23.0849 32.7591 34.5804
C -22.6183 31.6542 34.6867
C -7.42427 -35.9716 4.44097
C -7.28397 -37.1694 4.38101
C -1.77176 21.8311 -4.7046
C -1.50931 21.2142 -5.72111
C 0.945254 -12.9334 -9.328
C 0.928612 -12.6624 -8.15191
C 32.6578 2.79148 25.8297
C 32.6758 1.59171 25.7824
C 27.865 6.08793 -23.4481
C 28.3246 6.26473 -22.3432
C 19.074 -25.618 -32.1163
C 18.0619 -26.0321 -32.6671
21
Atoms. Timestep: 340000
C 23.7413 -37.4116 20.2065
C 23.5291 -36.9054 19.1448
H 9.92586 15.8445 20.0372
C -13.3535 2.31464 25.5102
C -13.8241 1.69804 24.5923
C -4.49503 -22.8364 0.90063
C -5.13661 -21.8955 1.26582
C -22.5092 18.1938 36.3897
C -22.3396 19.0792 35.5896
C -12.5633 -34.5216 0.725003
C -11.6174 -34.6483 -0.0141208
C -4.09272 25.0282 -3.07447
C -4.06703 23.8991 -3.47818
C 8.93084 -1.05467 -13.0429
C 9.59705 -1.36621 -14.0027
C -37.7556 2.69926 34.1035
C -37.1236 1.6886 34.0108
C 26.1375 11.4968 -30.3555
C 26.3535 11.849 -29.2334
C 29.3892 -23.2056 -15.5035
C 28.6809 -24.1636 -15.4857
21
Atoms. Timestep: 360000
C 25.7719 37.8931 30.6225
C 25.7452 36.9 31.2983
H -20.7935 27.3623 -6.94669
C -8.26449 8.46989 20.4164
C -7.39267 8.43096 19.5843
C -11.9542 -11.7977 -0.582733
C -11.5402 -12.8835 -0.931444
C -21.6386 5.04579 36.8668
C -22.3539 5.00589 37.8333
C -16.9647 -33.1693 -3.59021
C -16.7165 -32.0178 -3.83409
C -6.42334 27.9778 -1.50619
C -6.63202 26.8476 -1.15989
C 18.1736 10.2911 -18.5086
C 17.0577 10.5318 -18.131
C -28.0397 2.48348 -37.6116
C -26.9929 1.90943 -37.7235
C 24.3999 16.9311 -37.2698
C 24.3814 17.4404 -36.1577
C 39.549 -21.007 1.14487
C 39.5174 -22.0685 1.76038
21
Atoms. Timestep: 380000
C 27.7509 31.3741 -37.7292
C 28.003 32.5542 -37.8325
H 28.6187 38.8879 -33.914
C -2.53579 14.5781 14.7044
C -1.6274 15.1812 15.2176
C -18.5722 -2.91543 -2.74963
C -18.7531 -1.76127 -2.43671
C -22.016 -8.16062 39.056
C -21.2557 -8.96556 38.5795
C -21.1616 -30.8996 -8.08729
C -21.9983 -30.3137 -7.45348
C -8.79181 30.6669 0.118179
C -9.15301 30.0401 1.09719
C 25.3636 22.053 -23.2569
C 26.5328 21.9602 -22.9548
C -18.1505 2.18933 -29.4708
C -16.9478 2.22787 -29.5726
C 22.6749 22.3692 35.8816
C 22.4052 23.0026 36.8841
C -30.3136 -19.1086 17.9337
C -29.6719 -19.6832 18.788
21
Atoms. Timestep: 400000
C 30.6022 27.4313 -25.7364
C 30.2056 26.3234 -26.052
H -1.81743 -29.6565 19.2465
C 3.8869 21.1316 9.42
C 3.38695 21.4226 10.4733
C -25.5432 8.19849 -4.28231
C -25.5445 7.03026 -4.55799
C -21.1074 -22.6404 -39.5783
C -21.47 -21.5201 -39.827
C -25.9637 -28.2002 -12.088
C -26.628 -29.0591 -11.529
C -11.2371 33.1525 1.96419
C -11.5729 33.4069 3.1134
C 34.2189 33.2632 -28.1054
C 33.4219 33.189 -28.9976
C -8.11327 1.86547 -21.4156
C -7.12536 2.57311 -21.469
C 20.9589 27.801 29.1137
C 20.4384 28.5166 29.9136
C -20.0584 -17.3127 34.8326
C -19.084 -17.2228 35.552
21
Atoms. Timestep: 420000
C 34.0469 22.7598 -13.0752
C 34.5051 23.4927 -12.2245
H -32.5801 -18.0783 -7.881
C 9.97641 27.9669 4.87781
C 8.85719 27.5193 4.87915
C -32.651 17.0939 -6.36986
C -32.3468 18.2539 -6.16361
C -20.7301 -35.3 -38.7801
C -21.082 -35.9992 -37.8639
C -31.3588 -26.1445 -15.6772
C -30.7659 -27.1183 -16.1027
C -13.7792 35.7879 4.09131
C -13.9483 36.6868 4.88994
C -39.4815 -36.9595 -35.8738
C -39.6005 -36.6889 -34.6979
C 2.13105 1.69323 -13.2756
C 2.70304 2.76696 -13.2769
C 19.1882 33.3092 22.2578
C 18.4867 34.0718 22.8839
C -9.48667 -15.6556 -27.7434
C -8.65239 -14.7635 -27.6184
21
Atoms. Timestep: 440000
C 38.3496 19.4816 1.11064
C 37.9563 19.3014 -0.00999764
H 16.7479 -6.53426 -34.9287
C 15.2428 34.4641 0.358448
C 15.1165 33.9161 -0.707996
C -39.1759 28.2285 -8.03842
C -39.7233 27.1685 -8.16704
C -20.9146 30.9316 -36.5026
C -20.1319 30.7167 -37.3921
C -36.2378 -24.9132 -19.6149
C -35.3917 -24.3649 -20.3039
C -16.3507 38.5928 6.38094
C -16.2798 39.7797 6.49247
C -33.3814 -26.7594 38.3563
C -32.4624 -27.0485 37.6431
C 12.4244 1.63422 -5.15815
C 12.4177 2.84562 -5.10274
C 17.4138 38.8196 15.4496
C 16.5498 39.5921 15.8472
C 1.31707 -13.6925 -10.3474
C 1.48272 -12.6287 -10.8576
21
Atoms. Timestep: 460000
C -38.1465 15.8457 12.9778
C -37.8651 15.5965 14.1131
H -13.4688 4.83838 18.4253
C 20.3049 -39.5865 -4.95316
C 21.409 -39.3307 -5.3528
C 33.3617 37.0521 -9.95261
C 34.0003 38.0786 -9.85229
C -19.7687 17.092 -35.8254
C -20.5235 17.9055 -35.3609
C 39.5597 -23.2948 -23.9867
C 39.4471 -22.0578 -23.9502
C -18.8893 -38.3403 8.74035
C -18.5713 -37.4769 7.96743
C -25.807 -17.2327 31.3194
C -26.9953 -17.0291 31.4506
C 22.6507 1.78338 2.8447
C 21.8956 2.71376 2.95192
C 15.6442 -35.7068 8.80996
C 14.6632 -35.0146 8.84747
C 11.8822 -11.5788 6.61964
C 11.5455 -10.7053 5.82487
21
Atoms. Timestep: 480000
C -34.0697 11.5906 27.2089
C -34.1299 12.3872 26.3101
H 35.8056 16.4026 -8.66955
C 25.9031 -32.5586 -8.09256
C 25.0652 -33.0702 -8.78606
C 28.4107 -32.7744 -13.5316
C 27.2723 -32.4006 -13.4849
C -19.8864 4.50464 -34.4139
C -19.6388 3.3931 -34.0184
C 35.2336 -20.7184 -28.4298
C 34.2516 -20.6426 -27.6602
C -21.3728 -35.0533 10.8738
C -20.9993 -34.8557 9.73292
C -20.2337 -7.20656 24.2793
C -19.3073 -7.17997 25.0384
C 32.8379 2.01965 11.0044
C 31.7444 2.49508 11.1202
C 13.8012 -30.1379 1.99857
C 12.7883 -29.5336 1.7898
C 22.6579 -9.13186 23.7188
C 21.7452 -9.04722 22.9421
21
Atoms. Timestep: 500000
C -30.0409 8.79682 39.9654
C -30.265 7.63848 -39.7418
H 4.75852 28.0878 -36.0479
C 25.5043 -25.5408 -6.41859
C 26.457 -25.0056 -5.90861
C 25.5695 -23.2319 -22.7882
C 26.6706 -23.6978 -22.7081
C -19.6526 -9.94293 -32.33
C -19.0975 -9.54255 -33.3194
C 29.9514 -18.0414 -32.2056
C 29.9127 -19.2861 -32.1227
C -23.8209 -31.7582 12.8253
C -23.5141 -32.1809 11.7212
C -13.1249 2.98298 18.4508
C -13.0161 2.71367 17.2738
C -36.9911 2.2319 19.2589
C -38.1811 2.3006 19.3646
C 11.9279 -24.5192 -4.92018
C 10.9048 -23.9867 -5.3056
C 33.1994 -6.57464 -39.3301
C 32.3986 -7.45643 -39.4347
21
Atoms. Timestep: 520000
C -26.4534 3.93895 -26.8563
C -26.0607 5.05125 -26.5603
H -25.8876 39.6221 16.9274
C 27.0003 -17.5598 -3.80278
C 25.9632 -18.095 -4.0914
C 25.098 -14.7428 -32.3538
C 23.9807 -14.3121 -32.3701
C -18.588 -23.5197 -31.8131
C -19.3972 -22.9953 -31.0894
C 24.5505 -16.4513 -35.3602
C 25.5579 -16.7639 -36.0542
C -26.1684 -28.5047 14.5308
C -26.0654 -29.5416 13.9046
C -6.00638 12.6148 10.7869
C -6.90768 12.9057 11.5202
C -27.0564 2.53531 27.42
C -28.1317 2.01473 27.4892
C 10.0497 -18.9371 -11.7143
C 9.07488 -18.5473 -12.3447
C -36.6558 -4.41953 -22.5823
C -36.8251 -5.51711 -22.0546
21
Atoms. Timestep: 540000
C -22.1191 1.1326 -13.068
C -22.5767 0.387068 -13.8988
H 23.3616 -28.8042 -10.1897
C 26.4421 -10.6155 -1.75785
C 27.5269 -10.097 -1.68818
C 22.925 -4.57652 38.0306
C 24.0657 -4.78215 38.3441
C -18.8449 -36.2673 -30.1202
C -18.3726 -37.3697 -30.026
C 19.1587 -15.0412 -39.3739
C 20.0764 -15.808 -39.5424
C -28.5105 -25.4712 16.133
C -28.6389 -26.6621 16.2046
C -0.417007 22.7746 4.33153
C 0.775062 22.6375 4.51224
C -17.2013 2.76132 35.6153
C -17.9343 1.80632 35.6353
C 8.13413 -13.3296 -18.5646
C 7.26951 -13.0958 -19.3747
C -26.5581 -2.61736 -5.62484
C -25.9302 -3.21084 -4.76758
21
Atoms. Timestep: 560000
C -18.6727 -3.07557 -0.909091
C -18.2656 -2.81744 0.187165
H -7.15059 -17.3204 -37.0963
C 28.0294 -2.70426 0.394172
C 26.9375 -3.18172 0.57344
C 22.9354 4.66105 29.0565
C 21.7665 4.83665 28.8001
C -18.2905 29.2637 -28.3236
C -18.1654 30.1878 -29.0877
C 14.2424 -13.2931 36.7268
C 14.4207 -14.5215 36.6764
C -30.8513 -22.7246 17.7016
C -31.1755 -23.5416 18.5078
C 7.16638 32.6102 -1.81581
C 6.36079 32.539 -2.69926
C -7.56071 2.89606 -36.2452
C -7.67816 1.68904 -36.2897
C 6.19815 -7.74422 -25.3686
C 5.51347 -7.70796 -26.3435
C -16.3148 -0.942156 11.4469
C -15.3437 -0.80938 12.1389
21
Atoms. Timestep: 580000
C -14.4435 -6.84105 13.3911
C -14.6966 -6.50363 12.27
H -37.8232 -5.77612 15.8556
C 27.4589 4.2996 2.9033
C 28.511 4.71882 2.50116
C 20.6178 14.3213 19.4795
C 21.7835 14.1319 19.7617
C -17.5004 16.2559 -27.8209
C -18.1898 16.1427 -26.8411
C 9.33165 -11.8412 32.7966
C 8.70382 -12.9228 32.8857
C -33.2807 -20.126 19.4768
C -33.6491 -20.2423 20.6249
C 13.407 -37.6357 -9.56354
C 13.3585 -37.3741 -8.38062
C 2.1726 2.81596 -28.0848
C 2.64638 1.7006 -28.1831
C 4.21814 -2.08227 -32.2136
C 3.72561 -2.25289 -33.3107
C -5.78151 0.733766 28.801
C -4.93758 1.61282 28.9416
21
Atoms. Timestep: 600000
C -11.6879 -10.1701 23.1034
C -11.3115 -9.04223 23.3326
H 18.0243 3.31555 -5.44293
C 28.6317 10.3974 3.90246
C 28.1279 10.3571 4.99571
C 19.6948 21.7361 12.2407
C 20.8947 21.6434 12.3421
C -17.1401 5.33762 -26.6425
C -17.9472 5.75863 -25.8546
C 4.51927 -11.6849 29.8466
C 5.14769 -10.6771 29.7562
C -35.5784 -17.8937 22.1611
C -35.2122 -17.8303 21.0054
C 18.863 -29.8436 -14.7746
C 18.3268 -29.5428 -13.7441
C 10.6429 1.32325 -22.0228
C 10.303 2.46961 -21.9369
C 2.88599 2.52845 -37.2556
C 3.21511 1.89222 -36.2652
C 2.31355 3.04886 -38.2813
C 1.99874 3.19249 -39.4588
21
Atoms. Timestep: 620000
C -9.99824 -10.3141 27.8045
C -10.4136 -11.3708 27.3858
H 7.84683 7.14745 -14.418
C 29.09 13.0838 5.07372
C 28.0024 12.6161 5.29665
C 19.5556 24.6142 9.63123
C 20.2705 25.055 8.77464
C -17.1472 1.27459 -26.2859
C -17.6861 0.845087 -25.2989
C 2.87745 -10.1117 28.5624
C 3.26311 -11.238 28.4784
C -36.0559 -16.4166 21.8722
C -36.3616 -17.3504 22.5858
C 20.6003 -26.4947 -17.0517
C 20.9823 -26.3082 -15.923
C 14.2109 2.23911 -19.3869
C 13.5314 1.24482 -19.3925
C 4.05363 3.72266 -35.4469
C 4.83059 3.46361 -34.5799
C 3.63451 4.16622 -36.5846
C 3.45147 4.64434 -37.6817
21
Atoms. Timestep: 640000
C -9.06637 -12.5541 31.8373
C -8.61014 -11.7446 32.6071
H -2.9112 11.1976 -23.9063
C 29.054 15.6979 6.40832
C 28.3903 15.2298 5.51832
C 19.5732 27.871 6.46689
C 19.4459 28.447 5.40942
C -17.1765 -3.2612 -25.7242
C -17.3882 -4.10821 -24.8963
C 1.81102 -10.206 27.0625
C 0.601804 -10.0736 27.2702
C -37.0499 -16.4141 22.6901
C -37.0874 -15.2842 23.1331
C 22.6821 -22.9487 -19.2636
C 23.5439 -22.8947 -18.4214
C 16.8664 1.66665 -16.6046
C 18.0603 1.49076 -16.6985
C 5.8399 5.18055 -33.7056
C 6.16564 4.80265 -32.6437
C 5.23028 5.72786 -34.7022
C 4.60845 5.92516 -35.8759
21
Atoms. Timestep: 660000
C -7.14488 -13.5678 37.9055
C -7.51087 -13.6174 36.7587
H -14.7918 15.6703 -34.3848
C 28.6584 18.327 7.36671
C 29.1744 18.3739 6.27858
C 19.2253 31.552 2.83777
C 18.9026 32.1087 1.82763
C -16.9737 -8.55688 -25.227
C -17.2945 -9.29181 -24.3285
C -0.923281 -10.1585 25.6731
C -0.780626 -8.93955 25.6688
C -38.2027 -14.8748 24.2088
C -37.8338 -14.5388 23.1222
C 25.301 -19.1241 -21.9115
C 26.0531 -19.0337 -20.9754
C 21.3454 0.803196 -13.6538
C 21.5154 1.99362 -13.6016
C 7.30198 6.96878 -31.551
C 7.94793 6.22438 -30.7458
C 6.84366 7.54211 -32.6702
C 6.23773 7.12881 -33.8261
21
Atoms. Timestep: 680000
C -5.5307 -14.6896 -37.0816
C -5.68094 -15.7866 -36.6022
H -28.3375 20.7699 33.6682
C 28.6038 21.3769 7.71502
C 29.672 21.9063 7.8898
C 18.3123 35.7581 -1.28684
C 18.7994 36.2742 -2.26927
C -16.5635 -15.0788 -24.5814
C -17.3665 -14.7178 -23.7599
C -3.71597 -9.17619 24.049
C -2.68161 -8.57454 23.883
C -39.2033 -13.0124 24.9649
C -38.9987 -13.7963 24.0851
C 28.7969 -14.8443 -24.9564
C 28.4038 -14.5507 -23.8615
C 26.3744 0.767884 -10.2328
C 25.5326 1.61781 -10.1274
C 9.30472 8.48422 -29.3482
C 9.76506 8.37667 -28.1241
C 8.72584 8.97197 -30.5465
C 7.93184 9.13189 -31.5
21
Atoms. Timestep: 700000
C -4.12768 -17.244 -31.4807
C -3.66966 -16.4948 -30.6519
H 38.234 25.8254 21.8246
C 29.3254 24.7844 8.18427
C 29.3895 25.0243 9.36311
C 17.5361 40.0343 -5.58005
C 18.5684 -39.7027 -6.12642
C -16.5333 -21.3617 -23.5649
C -17.0614 -20.2795 -23.5727
C -6.06574 -7.93811 22.3721
C -4.9849 -8.477 22.1795
C 39.9083 -11.5255 25.28
C 39.743 -12.701 25.4741
C 32.0713 -10.4694 -27.4918
C 30.9256 -10.2388 -27.2057
C 31.0328 1.09727 -6.79859
C 29.8419 0.880852 -6.72602
C 11.1786 10.5435 -27.063
C 11.6231 10.0862 -25.9253
C 10.4098 10.5659 -28.0858
C 9.84819 10.8084 -29.2507
21
Atoms. Timestep: 720000
C -1.96594 -19.3991 -24.0037
C -1.74499 -18.2444 -24.3038
H 26.1443 29.1083 4.55879
C 29.8891 29.3311 9.97881
C 29.0173 28.5197 10.1529
C 17.3771 -34.5791 -11.2599
C 17.5217 -35.1563 -10.2014
C -16.9977 -27.6044 -22.5187
C -16.1958 -28.2129 -23.1782
C -8.85967 -7.16521 20.3503
C -7.76 -7.65135 20.1554
C 38.6283 -9.97837 26.2856
C 38.4538 -11.1575 26.5081
C 34.6659 -5.00446 -30.3714
C 35.2681 -5.30673 -31.3632
C 36.402 0.807245 -2.71068
C 35.2059 0.683077 -2.63276
C 13.3832 12.5958 -24.3191
C 13.8394 12.3426 -23.1902
C 12.4967 12.6651 -25.3118
C 12.1158 12.8254 -26.4997
21
Atoms. Timestep: 740000
C 0.343679 -21.1285 -16.4723
C 0.175 -20.5567 -17.5256
H 28.5354 25.1087 -13.7515
C 28.5439 33.3817 11.8849
C 29.3097 33.4139 10.9586
C 17.3272 -29.8959 -15.4963
C 16.3237 -29.5585 -16.0615
C -16.0031 -35.3263 -22.5576
C -16.7751 -35.1638 -21.6482
C -11.7709 -6.49402 18.2589
C -10.6129 -6.66799 18.0592
C 37.2648 -8.3659 27.4533
C 37.158 -9.57108 27.4514
C 38.6006 0.0922931 -35.0962
C 38.5136 0.357778 -33.922
C -38.0553 0.377091 1.51449
C -39.2275 0.608339 1.6099
C 15.4662 14.6568 -21.4504
C 16.1167 14.7633 -20.3579
C 14.9792 14.8275 -22.5473
C 14.3561 14.9014 -23.5757
21
Atoms. Timestep: 760000
C 2.71245 -23.073 -8.68251
C 2.38315 -22.9856 -9.83084
H 31.1237 20.7807 -33.5633
C 28.4572 37.9119 12.3932
C 28.2573 38.5631 13.3846
C 15.5966 -24.0371 -21.4451
C 16.704 -24.292 -21.0384
C -16.569 37.0624 -20.9241
C -15.7599 36.5696 -21.6681
C -14.7939 -6.04972 15.9696
C -13.8275 -5.32187 15.8171
C 35.6943 -6.77877 28.9766
C 35.8509 -7.69662 28.2125
C -37.7608 6.19495 -37.9038
C -37.3553 5.90006 -38.9962
C -32.3226 -0.298484 6.09403
C -32.9388 0.737561 6.19354
C 18.0457 17.1847 -18.3483
C 18.4642 17.1905 -17.1315
C 17.4552 17.0807 -19.5341
C 16.7819 17.1294 -20.5926
21
Atoms. Timestep: 780000
C 5.13507 -25.273 -0.569971
C 4.75583 -25.3678 -1.71996
H 33.8356 16.2462 25.6795
C 27.9521 -36.21 14.7327
C 27.5688 -37.1739 14.1194
C 15.915 -18.5287 -26.6375
C 14.9708 -18.1443 -27.293
C -15.6416 27.9702 -20.486
C -16.2164 29.0265 -20.4156
C -17.4678 -5.34806 13.4909
C -17.6886 -4.14768 13.5481
C 34.0807 -5.53494 30.3507
C 34.4494 -5.31371 29.2318
C -32.9581 12.0135 37.1605
C -34.0174 12.282 37.6818
C -26.6942 -0.553774 10.9432
C -25.9721 0.42043 10.9447
C 20.4862 19.7868 -15.0802
C 21.0297 19.7098 -14.024
C 19.9428 19.5608 -16.207
C 19.5862 19.4143 -17.3824
21
Atoms. Timestep: 800000
C 7.59277 -27.6279 7.74832
C 7.21997 -27.716 6.61327
H 36.619 11.592 4.37466
C 26.7568 -31.945 15.9757
C 27.5391 -31.0301 16.0318
C 14.5005 -12.0835 -33.3284
C 14.9332 -12.6258 -32.3511
C -15.5864 20.3895 -19.9939
C -15.7884 19.5329 -19.1725
C -21.0276 -2.91259 11.7073
C -22.0489 -2.447 11.2591
C 32.6461 -4.15313 31.0808
C 32.7895 -2.97306 30.9583
C -29.8288 18.4196 32.8763
C -28.7914 18.3985 33.4903
C -19.3953 -0.900853 15.619
C -19.131 -2.03082 15.3224
C 23.0584 22.1707 -11.7972
C 23.5498 22.471 -10.5915
C 22.715 22.1148 -12.9603
C 22.2913 21.8625 -14.0912
21
Atoms. Timestep: 820000
C 10.0546 -29.9788 16.0772
C 9.67786 -30.0661 14.9287
H 39.4012 6.93988 -16.921
C 26.9983 -26.0021 17.3211
C 26.0731 -26.5687 17.8405
C 13.8997 -6.6588 -38.1826
C 14.0825 -6.09199 -39.241
C -15.8342 11.5212 -18.2661
C -15.0576 11.3342 -19.1658
C -23.3238 1.63355 13.7709
C -24.3332 2.2491 13.4447
C 31.3111 -1.96844 31.723
C 31.0313 -1.4369 32.7716
C -25.1016 24.7889 29.5332
C -25.1669 24.5464 28.3613
C -14.385 -5.6814 15.9788
C -13.3436 -5.15526 15.692
C 25.8381 24.7611 -8.38312
C 25.9432 25.0685 -7.16414
C 25.3267 24.5626 -9.64659
C 25.0714 24.3697 -10.9984
21
Atoms. Timestep: 840000
C 12.6603 -32.9804 25.2519
C 12.5429 -32.2921 24.2625
H -37.505 1.7667 39.3982
C 25.4138 -20.6563 19.7122
C 26.2959 -20.345 18.9567
C 13.769 0.199802 34.8608
C 12.5992 0.347268 34.6564
C -15.319 1.55007 -17.3134
C -15.0356 2.32694 -18.1899
C -25.5261 7.01893 16.4595
C -26.6725 7.05914 16.0615
C 29.4891 0.96271 33.6622
C 29.4137 -0.230472 33.563
C -19.9806 31.6196 24.552
C -21.0008 31.6346 23.9216
C -8.46817 -10.275 16.0064
C -7.8053 -9.27002 15.8951
C 28.4126 27.6571 -4.69118
C 28.8718 27.8425 -3.46143
C 28.3684 27.3779 -6.0314
C 28.275 27.1634 -7.27665
21
Atoms. Timestep: 860000
C 15.2279 -35.7918 34.15
C 15.4028 -34.6671 33.7268
H -34.4356 -3.36565 15.9044
C 25.5566 -14.7577 20.6043
C 24.8022 -14.7654 21.5442
C 12.4934 7.15124 27.7542
C 12.2734 6.58872 28.8068
C -14.6608 -8.02252 -16.769
C -15.1609 -6.92908 -16.8208
C -27.8157 12.3423 19.0896
C -28.8886 11.8507 18.695
C 27.563 2.12173 35.4663
C 27.9273 2.71542 34.4678
C -15.372 38.3952 19.2804
C -16.3957 38.6681 19.8466
C -2.44724 -14.6953 15.9987
C -2.46152 -13.4894 16.1317
C 31.3678 30.3982 -1.06258
C 31.5415 30.5491 0.152098
C 31.3314 30.2145 -2.31961
C 31.3427 30.0689 -3.61528
21
Atoms. Timestep: 880000
C 17.8469 -38.3822 -36.9952
C 18.2557 -37.3053 -36.6156
H -31.3412 -8.53993 -7.7814
C 24.2148 -8.83775 23.3414
C 24.782 -9.11333 22.3151
C 10.9934 13.6036 21.6295
C 12.159 13.437 21.8694
C -14.2383 -17.1959 -16.2129
C -15.0462 -16.7381 -15.4478
C -30.2797 17.6614 21.685
C -30.9673 16.7292 21.4062
C 26.1541 4.17792 35.8302
C 25.8959 4.79769 36.835
C -11.2037 -34.6387 14.2661
C -11.2749 -34.376 15.4381
C 3.57128 -18.9527 16.0291
C 2.97751 -17.9423 16.3321
C 34.1273 33.3584 2.63225
C 34.4664 33.0802 3.81405
C 34.2077 33.1824 1.29175
C 34.5328 32.891 0.151288
21
Atoms. Timestep: 900000
C 20.5552 39.2805 -28.068
C 21.0044 39.8175 -27.0805
H -28.2551 -13.7002 -31.4031
C 23.9818 -3.47555 24.066
C 23.6568 -2.93485 25.0891
C 10.6085 19.8812 15.7473
C 10.9339 20.4241 14.7249
C -14.1519 -26.1438 -15.3481
C -14.5967 -26.7214 -14.3886
C -32.7867 22.8859 24.2526
C -32.9905 21.6747 24.1309
C 24.3656 7.14628 37.6845
C 24.2534 5.95658 37.7044
C -7.09195 -27.5706 9.79557
C -6.12268 -27.5597 10.5112
C 9.49904 -23.0418 16.1006
C 8.4763 -22.5399 16.4908
C 37.3115 35.8455 6.29265
C 37.0897 36.0265 7.54397
C 37.3526 35.8841 4.95434
C 37.2994 36.0068 3.79321
21
Atoms. Timestep: 920000
C 23.3846 37.0695 -18.8681
C 23.6588 36.7884 -17.7279
H -25.1539 -18.8857 24.8597
C 23.1028 2.96873 26.8047
C 23.1709 2.21798 25.866
C 10.5305 26.7022 8.87075
C 9.3941 26.9326 8.51111
C -14.2337 -35.3885 -14.0934
C -13.9766 -36.5002 -13.7101
C -35.3626 27.9771 26.8064
C -34.9671 26.8032 26.8952
C 22.4028 8.33831 39.567
C 22.7683 8.91199 38.5589
C -2.51749 -20.4682 5.6061
C -1.38792 -20.71 5.25734
C 15.2999 -27.1113 16.228
C 14.1578 -27.1995 16.5946
C -39.8063 38.6597 9.98862
C 40.0097 38.6581 11.2093
C -39.6718 38.7538 8.65903
C -39.7021 38.9971 7.4939
21
Atoms. Timestep: 940000
C 26.5019 34.7407 -8.72828
C 26.3081 33.6069 -8.35819
H -21.8928 -24.3387 -0.101835
C 22.3892 8.27491 27.7488
C 22.4492 9.10707 28.619
C 9.62249 33.9653 1.52084
C 8.60072 33.6867 2.09543
C -14.0596 34.6042 -12.9305
C -13.5845 33.5021 -12.8399
C -38.0808 32.9859 29.4742
C -37.0361 32.5413 29.8199
C 20.9462 10.7395 39.9268
C 20.5992 10.8722 -38.9227
C 2.47797 -13.107 0.827642
C 3.40601 -13.3994 0.105361
C 21.3374 -31.7684 16.3424
C 20.195 -31.7218 16.7235
C -36.5487 -38.292 13.9396
C -37.023 -38.6713 15.0461
C -36.5666 -38.1722 12.5898
C -36.6485 -37.9068 11.3037
21
Atoms. Timestep: 960000
C 29.5242 31.7993 1.63812
C 29.0658 31.0252 0.830231
H -18.6241 -29.8043 -25.1214
C 21.79 15.2485 30.4298
C 21.6098 14.3571 29.6435
C 8.33323 -38.8664 -5.61777
C 8.18469 -39.432 -4.56355
C -13.856 24.5303 -11.7749
C -13.2206 23.5247 -11.9578
C 39.5284 37.8615 32.2585
C -39.4437 38.4374 32.641
C 18.8492 13.3746 -37.6047
C 19.0622 12.6085 -38.5063
C 7.47041 -5.66789 -3.99203
C 8.1038 -5.96546 -4.97443
C 27.3773 -36.4534 16.459
C 26.2579 -36.2375 16.8506
C -33.5743 -35.5377 17.6998
C -33.7566 -35.7377 18.8542
C -33.4598 -35.1562 16.4996
C -33.5836 -34.6942 15.39
21
Atoms. Timestep: 980000
C 32.3575 28.1414 11.9277
C 32.2771 28.9072 10.9906
H -15.2058 -35.5202 28.7138
C 20.8603 20.7493 31.5785
C 21.035 21.6394 32.3701
C 7.22742 -31.5186 -12.8224
C 7.50713 -32.087 -11.7881
C -13.4762 14.0956 -10.8508
C -13.0068 12.9902 -10.7508
C 37.6016 -36.8386 35.3786
C 37.465 -35.5975 35.3829
C 17.1339 14.8111 -36.9317
C 16.977 15.7436 -36.1624
C 12.0764 2.42941 -9.07947
C 12.9343 2.13692 -9.86866
C 33.4867 38.3722 16.6199
C 32.8052 39.3149 16.9446
C -30.4861 -32.283 21.8119
C -30.2762 -32.9433 22.93
C -30.3285 -31.9754 20.5594
C -30.3029 -31.4621 19.4192
21
Atoms. Timestep: 1000000
C 35.1362 25.1405 21.4464
C 35.5813 26.0967 22.0505
H -11.7659 38.728 2.38435
C 20.2662 28.0661 34.329