105
Atoms. Timestep: 0
C -4.29449 3.50371 -4.24463
C -4.10196 4.36777 -3.35937
H 38.4296 17.285 9.15019
C -26.5454 14.4108 12.546
C -25.8574 14.3998 11.5229
C 9.94653 -14.0988 -31.9884
C 9.80137 -15.0169 -32.7669
C -38.4985 5.75501 -9.23664
C -38.8336 4.62238 -9.00658
C 2.37575 32.5634 -31.203
C 1.3781 32.2255 -31.7322
C 37.8416 17.7968 8.36017
C 37.211 18.4308 7.51273
C -3.84869 5.12905 -2.36722
C -3.63512 5.86891 -1.36076
C 9.67525 -16.0392 -33.5955
C 9.57627 -17.0224 -34.3143
C -11.616 -14.197 -1.46703
C -10.8813 -15.0481 -1.28426
C -12.5572 -13.1003 -1.71887
C -13.1992 -12.1399 -2.07733
C 9.11448 23.2934 -9.89582
C 8.72188 22.2421 -9.41601
H -10.3144 -15.948 -0.98657
C 0.406741 10.1637 9.85519
C 1.10276 9.22585 9.47449
C 39.4113 -29.159 -5.61086
C 39.9727 -29.9942 -4.9792
C -2.27664 -19.6341 -19.2415
C -2.79802 -18.7082 -18.6521
C -1.76967 17.6066 37.0676
C -2.11005 18.4269 37.8774
C -23.5337 -19.5388 -36.9177
C -23.3627 -20.218 -37.9036
C 10.6974 24.7214 -26.4637
C 10.0693 25.6225 -26.9659
C -2.15834 12.7721 10.8576
C -2.89552 13.7355 11.0937
C -1.18177 11.9662 10.5756
C -0.395415 11.1062 10.1715
C -39.138 -31.9857 -3.60135
C -39.4777 -31.006 -4.30062
C 22.1933 -7.82315 39.7981
C 21.2549 -8.56614 39.8099
H 23.1126 -7.26848 39.6507
C 34.5092 32.5394 3.53307
C 35.1015 31.6046 4.02387
C -20.8061 -30.1184 22.5369
C -21.8766 -29.7383 22.7393
C -34.8209 -27.5943 33.2988
C -34.3318 -28.7109 33.1337
C 21.4282 20.2609 -11.7806
C 22.256 19.6315 -12.4053
C -23.1837 -29.4461 22.8058
C -24.3928 -29.3827 22.7221
C 30.7034 30.2753 21.5105
C 29.876 30.2393 20.6503
C 16.9507 -37.9837 37.6254
C 16.1383 -37.3353 38.2957
C 3.32809 27.2383 37.5299
C 4.46122 27.6402 37.5232
C -2.73808 8.01928 1.67494
C -2.39083 8.74946 2.74489
C -3.03243 7.39447 0.609518
C -3.31826 6.62536 -0.342619
H -19.7907 -30.4157 22.3913
C -25.1178 -37.733 -4.13869
C -24.5647 -36.8411 -3.53291
C -2.11675 9.35341 3.80901
C -2.00486 9.88391 4.89186
C 21.2445 -6.59746 20.5857
C 22.4451 -6.56109 20.6307
C 30.9768 -4.94532 9.5414
C 31.8162 -5.67621 9.02132
C -9.33621 -29.8828 26.6139
C -8.55864 -30.5199 25.9578
C 26.3527 -24.0768 27.4101
C 25.3636 -23.6365 27.9315
C -23.3809 -22.4712 -9.94162
C -24.3915 -22.9162 -9.44298
C -29.7316 6.79592 -6.06479
C -29.6288 7.80221 -5.39693
C 1.81582 -29.8107 -38.4173
C 1.99783 -29.1125 -37.4514
C -12.8066 -26.7429 -10.9657
C -12.5384 -25.589 -11.0019
H -26.4799 28.3808 -26.2288
C -28.2774 35.9101 -24.8358
C -29.4503 35.8699 -24.9597
C 28.4769 17.236 0.939276
C 28.1023 18.4086 0.843755
C -30.4586 8.57439 10.9874
C -30.2145 8.00508 11.9998
C -6.35714 13.9913 -7.31867
C -6.03463 14.0421 -8.46256
C 37.201 -24.9766 -35.9282
C 37.5564 -25.4962 -36.9686
C -22.6919 25.1623 -19.0172
C -23.5716 25.3668 -19.9258
C -22.8875 8.0977 -8.9653
C -24.1369 7.8645 -9.14493
C -28.2837 -3.7255 4.76679
C -29.5064 -3.49524 5.09012
C -19.6962 36.8366 32.6326
C -19.7306 36.2797 33.747
105
Atoms. Timestep: 20000
C -1.25444 5.82051 -4.60213
C -1.42187 5.91233 -3.39166
H 37.4224 19.6135 15.6726
C -17.7144 11.9708 5.19969
C -17.3145 12.7198 4.3667
C 3.75867 -16.4028 -31.3096
C 2.66475 -16.8052 -30.9655
C 39.7511 -9.56299 -8.59583
C 39.5324 -8.40016 -8.3952
C -3.37496 33.825 -32.3984
C -2.91548 33.9229 -33.5658
C 36.581 19.279 15.044
C 35.5393 19.0531 14.3923
C -1.61425 5.96612 -2.12831
C -1.82779 6.17257 -0.923056
C 1.47665 -17.2638 -30.608
C 0.371293 -17.685 -30.255
C -7.65931 -13.7214 4.40574
C -7.85931 -14.6459 3.80324
C -7.58797 -12.4915 5.16576
C -7.58704 -11.602 5.97401
C 6.65139 23.0883 -8.27848
C 6.45895 23.9278 -9.09635
H -8.10061 -15.5224 3.16586
C -2.5929 4.42227 10.1707
C -3.33263 3.48337 9.8845
C -36.3174 -35.2691 -2.041
C -36.2119 -34.3949 -2.93322
C -4.86471 -17.9634 -9.62611
C -4.41884 -16.8704 -9.9127
C -6.25156 20.5332 29.9405
C -6.4092 19.3722 30.3142
C -20.059 -18.4462 39.5368
C -20.1974 -19.1209 38.5293
C 9.37432 23.1844 -34.3564
C 10.0571 22.3834 -33.7656
C -0.274808 7.35657 10.7497
C 0.495509 8.41097 10.8911
C -1.04309 6.41868 10.6291
C -1.75664 5.41452 10.4357
C -35.9437 -32.221 -4.22417
C -36.0705 -33.2397 -3.54391
C 13.7759 -20.1462 36.4588
C 14.2026 -20.7359 37.4312
H 13.371 -19.6643 35.6151
C 30.1113 30.7586 -7.4734
C 29.1683 30.6106 -6.74826
C -20.3745 -25.4193 22.3337
C -20.3554 -24.3024 22.53
C -32.9514 -25.7961 33.6066
C -32.0921 -25.2139 32.9655
C 27.3111 10.4445 -4.69061
C 26.3545 11.1042 -4.34305
C -20.4606 -22.9351 22.9389
C -20.5839 -21.7981 23.3644
C -39.0976 33.0385 26.2541
C -39.9569 33.0079 25.4231
C 12.8487 -28.0502 33.8798
C 12.0861 -27.2653 34.4539
C 8.8074 25.6088 -36.7213
C 9.77449 25.7045 -36.0454
C -2.50409 5.92571 2.81114
C -2.76755 5.55777 4.05001
C -2.29491 6.11604 1.67518
C -2.05889 6.15197 0.363189
H -20.3474 -26.492 22.1872
C -24.1393 -25.302 -8.68678
C -23.0427 -25.8187 -8.81608
C -3.13855 5.1795 5.2
C -3.54515 4.75474 6.25793
C 15.0866 -2.52937 15.5699
C 15.9022 -3.33737 15.2023
C 29.4535 -12.7559 12.5874
C 28.3597 -12.3255 12.3773
C -0.35131 -37.7604 17.5533
C -1.08514 -38.5798 18.0389
C 36.2707 -34.4073 30.3103
C 36.6888 -35.4897 29.9814
C -24.9509 -25.7905 -16.0842
C -23.8851 -25.387 -15.6727
C -33.9047 16.3287 -3.77629
C -33.4853 17.462 -3.79426
C -0.336917 -35.1604 -38.4531
C -0.377047 -34.4714 -39.4279
C -11.2247 -23.1773 -17.173
C -11.5256 -24.2884 -17.4637
H -15.6092 27.0935 -12.1809
C -26.867 36.126 -29.6078
C -25.8668 36.9356 -29.727
C 23.1109 21.399 3.92349
C 23.383 22.642 3.88977
C -30.8011 11.281 12.111
C -29.9977 12.022 12.7032
C 2.03158 18.3781 1.12138
C 3.17332 18.3889 1.53272
C 36.7509 -24.5874 -32.6582
C 37.6506 -25.2439 -32.1667
C -21.336 25.1484 -17.9679
C -21.2953 25.1658 -16.7569
C -25.5793 2.24687 -9.90238
C -25.9235 2.31886 -11.1279
C 39.6135 8.39075 -4.21345
C 38.5201 8.94963 -4.35431
C -15.9633 -36.1674 24.9367
C -16.7203 -36.2176 23.8988
105
Atoms. Timestep: 40000
C 0.912592 10.6213 -0.680549
C 0.275878 9.67882 -0.215684
H 35.6053 21.5728 21.4988
C -8.83299 9.69746 -2.30385
C -8.90385 10.8763 -2.57403
C -5.22389 -19.7937 -29.7116
C -5.44699 -18.9446 -28.8762
C 37.5883 -22.7229 -7.5764
C 38.3238 -23.472 -8.16725
C -8.72028 35.1572 -34.7184
C -7.57566 35.5385 -34.2635
C 34.9972 20.6953 21.512
C 34.2703 19.7634 21.492
C -0.393826 8.84498 0.394695
C -1.10607 8.01682 1.01703
C -5.72016 -18.0787 -27.9979
C -5.94973 -17.2975 -27.0599
C -3.85519 -12.638 10.7049
C -4.54374 -12.6762 9.81061
C -2.87046 -12.6703 11.8168
C -1.98704 -12.6604 12.6722
C 3.84181 24.4449 -8.18641
C 4.56067 24.0462 -7.25886
H -5.23467 -12.7034 8.9827
C -2.30605 -1.32507 5.37946
C -3.30422 -1.78976 4.82226
C -31.7681 -35.3391 -2.10116
C -32.2635 -36.4117 -1.85873
C -7.18327 -15.6465 -0.21261
C -6.29301 -15.6921 -1.04193
C -10.9444 21.791 23.3818
C -10.4636 21.9715 22.2391
C -16.6337 -17.3774 35.9728
C -17.008 -18.0084 35.008
C 7.92733 16.318 -38.5418
C 8.14874 17.2937 -39.2287
C 0.779147 -0.369456 7.42799
C 1.88331 -0.282233 8.10042
C -0.264494 -0.620189 6.71248
C -1.28536 -0.954147 6.0556
C -33.1976 -38.691 -1.36289
C -32.6826 -37.6128 -1.69188
C 7.28084 -27.6517 39.6421
C 7.87016 -28.0019 -39.3865
H 6.65312 -27.3403 38.7373
C 24.7165 28.8261 -17.6585
C 24.2716 29.779 -18.2581
C -20.0198 -18.1683 22.3472
C -18.9785 -17.8418 22.7276
C -30.1606 -23.3531 33.2174
C -30.7895 -22.382 33.4938
C 31.2969 1.95779 3.04731
C 32.3122 1.31783 3.0129
C -17.7529 -17.4391 23.0991
C -16.5667 -17.2152 23.3599
C -28.7074 36.2279 30.8182
C -29.3585 35.9583 29.821
C 6.52196 -22.3847 24.3197
C 7.45632 -23.0234 23.7946
C 15.772 27.9049 -32.3624
C 15.5862 27.0552 -33.2582
C -2.77573 5.27084 3.14258
C -3.18417 4.31035 3.84184
C -2.17901 6.17411 2.42238
C -1.68078 7.11582 1.78151
H -20.9543 -18.4506 21.9196
C -22.118 -13.4162 -13.5411
C -22.6074 -14.3217 -14.1456
C -3.54579 3.26172 4.50823
C -3.909 2.28513 5.19192
C 9.21471 1.23989 10.4439
C 9.12179 0.157152 9.92408
C 25.9908 -19.7659 15.2566
C 26.8617 -19.7197 16.0854
C 7.69537 33.3722 9.12441
C 7.26336 34.4113 9.55345
C -33.7338 33.2911 32.7913
C -32.8457 34.0843 32.9495
C -24.6934 -28.4245 -21.2954
C -25.1676 -28.5402 -22.3961
C -37.9725 26.052 -1.4872
C -37.4016 26.8545 -2.21502
C -2.53572 -39.563 -39.8024
C -2.68869 39.2634 39.9173
C -10.2449 -21.8288 -23.9307
C -9.91853 -20.7882 -23.3287
H -2.38954 37.2209 -3.90119
C -23.7593 37.7824 -34.5827
C -23.9997 36.5559 -34.2548
C 17.8786 25.6687 6.9017
C 18.5685 26.7364 6.91871
C -30.5064 14.5439 13.7109
C -30.4026 15.4695 12.9206
C 11.6401 22.7612 9.95184
C 11.0941 22.7061 11.0667
C 37.1385 -24.8086 -28.9396
C 36.9087 -24.3835 -27.8443
C -19.8089 24.6447 -14.4353
C -19.4048 24.498 -15.6079
C -28.4689 -3.53348 -11.583
C -27.5096 -3.25045 -12.3483
C 27.411 20.5044 -13.1407
C 26.7382 21.3026 -13.7808
C -13.4902 -29.2962 15.5949
C -12.476 -28.6458 15.7638
105
Atoms. Timestep: 60000
C 0.884829 6.49499 4.33415
C 0.232181 5.54775 4.69024
H 33.4404 22.8532 27.6116
C 0.110575 7.67286 -9.92244
C -0.38412 8.72936 -9.51862
C -12.8943 -16.4952 -29.9504
C -11.9029 -16.7767 -29.238
C 36.7247 -37.4391 -7.60968
C 35.785 -37.2476 -6.8751
C -13.1949 36.8123 -36.6299
C -13.1792 36.8669 -35.4135
C 33.2874 21.865 28.0934
C 33.1289 20.7985 28.5836
C -0.546139 4.56447 5.06249
C -1.12707 3.62067 5.45713
C -10.7621 -17.0116 -28.6551
C -9.68799 -17.0723 -28.0774
C 0.70125 -11.5768 17.6901
C 0.0918693 -10.6338 17.4815
C 1.37054 -12.8307 17.7551
C 2.03258 -13.8159 17.7712
C 2.32852 25.1136 -6.4131
C 1.3227 24.866 -7.08483
H -0.450177 -9.70046 17.2708
C -3.29923 -3.91671 3.77085
C -4.24144 -3.08146 3.81568
C -30.2515 38.5642 -0.111354
C -29.2764 39.2707 -0.377968
C -8.99923 -13.3618 8.79645
C -8.70873 -14.4515 8.4017
C -15.0018 23.281 15.1494
C -15.2342 24.3741 15.7028
C -13.1231 -16.3342 32.3285
C -13.8432 -16.8503 31.5016
C 6.71511 11.5563 35.9437
C 6.18217 10.7016 36.6128
C -0.234612 -6.09209 3.98095
C 0.846653 -6.74263 3.973
C -1.33575 -5.43985 3.92827
C -2.32609 -4.7695 3.88883
C -27.3454 -39.0887 -0.405318
C -28.2721 -39.8501 -0.339599
C 1.27225 -33.3426 -35.1179
C 1.84456 -33.6911 -34.1088
H 0.607121 -33.0501 -35.9577
C 18.188 27.5586 -26.3476
C 19.1383 27.186 -26.9795
C -17.2111 -10.0894 22.8689
C -16.6344 -11.0741 22.8528
C -28.0396 -19.8442 33.1346
C -28.7792 -20.5675 33.717
C 37.337 -7.88163 10.7716
C 36.3075 -7.28413 10.5215
C -15.8991 -12.2684 22.9714
C -15.3574 -13.3268 23.1018
C -16.3037 39.8015 32.4836
C -15.1396 39.85 32.7532
C 1.43854 -19.7979 11.9992
C 0.495702 -19.2783 11.4311
C 22.436 29.0002 -29.2817
C 22.2193 29.5655 -30.3853
C -3.0685 0.478012 6.57359
C -3.6671 -0.629652 6.79431
C -2.45535 1.59253 6.28215
C -1.79557 2.58864 5.96647
H -17.7691 -9.09633 22.9512
C -20.5577 -2.27565 -19.0222
C -21.7068 -1.86377 -18.9559
C -4.19423 -1.81677 6.82777
C -4.84415 -2.79587 6.98043
C 5.03316 2.19307 5.37283
C 4.24547 2.94569 5.88073
C 24.0274 -26.7433 19.4347
C 23.8187 -27.2793 18.3433
C 15.9809 25.5685 2.16745
C 16.9341 25.8903 1.50009
C -25.965 21.097 37.6261
C -25.4058 22.0723 38.0609
C -25.2218 -31.2732 -28.4008
C -25.6713 -31.526 -27.3133
C 38.0408 36.0152 0.655943
C 38.5274 36.1833 -0.454184
C -4.96955 34.4426 38.4489
C -4.82659 34.4834 39.6593
C -12.724 -24.7934 -24.4974
C -12.8164 -25.7016 -23.6458
H 10.9518 -32.5584 4.4548
C -20.9466 37.3949 -39.0437
C -21.7918 38.2317 -39.384
C 12.031 29.9517 9.0685
C 12.6873 30.9699 9.11794
C -30.1708 18.4588 14.741
C -30.8494 18.327 13.7247
C 20.8345 27.2312 19.9037
C 19.77 27.2433 19.2852
C 37.3071 -24.6375 -24.2081
C 36.3824 -23.9095 -24.4606
C -17.4723 23.8496 -13.0935
C -18.2922 24.1108 -12.225
C -30.7299 -9.18328 -13.7584
C -29.7498 -9.0613 -13.1087
C 15.2141 33.0926 -23.9153
C 15.3948 33.8396 -24.8195
C -9.30309 -21.3057 6.5113
C -9.88346 -22.0582 7.20977
105
Atoms. Timestep: 80000
C -7.60795 0.424325 3.88559
C -6.89714 -0.556515 4.02414
H 31.0579 23.4367 33.9601
C 8.93437 5.89066 -17.4359
C 8.2293 6.32567 -16.5199
C -18.3542 -14.6363 -29.3622
C -17.2393 -14.5616 -29.8117
C 34.1164 28.2123 -6.25129
C 35.0078 28.6649 -6.93077
C -18.0811 38.5365 -38.5351
C -19.1984 38.2359 -38.0171
C 31.5252 22.7875 34.7414
C 32.0642 22.1344 35.56
C -6.0069 -1.46559 4.05927
C -5.21048 -2.3487 4.07217
C -16.0689 -14.6503 -30.4134
C -14.9425 -14.604 -30.8971
C 5.58534 -11.2187 24.5753
C 5.88968 -10.4459 25.3451
C 5.14559 -12.1693 23.5703
C 4.85439 -13.0534 22.7954
C -0.990724 25.3453 -5.85909
C -0.0995931 26.1198 -5.69547
H 6.30714 -9.82558 26.1657
C -6.34924 -5.72766 3.39293
C -7.16946 -5.88939 4.36461
C -23.5553 37.2393 1.8585
C -24.5278 36.7536 1.347
C -10.6491 -11.7504 17.5465
C -11.2882 -12.6299 18.0404
C -19.3657 26.2377 7.68356
C -19.6801 25.302 8.43016
C -9.66665 -15.3121 28.6593
C -10.6378 -15.6754 28.0347
C 4.45071 5.13307 31.7513
C 5.27428 5.79425 31.1518
C -4.22355 -5.55772 0.211027
C -3.56862 -5.69659 -0.891924
C -4.86189 -5.60235 1.31654
C -5.57368 -5.6721 2.33192
C -26.6926 35.7705 0.442599
C -25.6333 36.1102 0.886285
C -4.45762 -39.0508 -29.9563
C -4.52067 -39.3475 -28.7501
H -4.40799 -38.6581 -30.9495
C 12.0486 24.6941 -29.6323
C 11.1416 24.7221 -28.849
C -12.9588 -4.33848 23.1741
C -13.7748 -5.12173 23.0844
C -26.7125 -17.098 33.6713
C -25.9836 -18.0012 33.3203
C -38.6555 -16.5294 17.9842
C -37.6852 -17.0401 18.5107
C -14.7581 -6.14048 22.8908
C -15.6134 -6.9841 22.9754
C -1.9193 -36.5497 34.6346
C -2.98226 -36.3694 35.2081
C -3.89114 -17.0418 -0.447002
C -4.33275 -16.8224 0.664046
C 29.4248 32.1352 -31.2329
C 29.4358 32.3219 -30.0172
C -2.45409 -4.93531 4.16506
C -1.6664 -5.83968 4.14166
C -3.344 -3.9939 4.27089
C -4.20827 -3.13771 4.22346
H -12.1796 -3.53909 23.1565
C -20.0594 9.21306 -24.4326
C -19.7624 10.2025 -23.8089
C -0.909899 -6.88976 3.96629
C -0.27745 -7.95545 3.72013
C 9.27081 -1.2409 7.71249
C 8.56896 -0.26415 7.61103
C 21.709 -34.6396 21.708
C 21.141 -33.8904 22.493
C 26.2237 18.1289 -3.84739
C 26.2408 16.949 -4.10652
C -18.168 9.0087 -37.5172
C -17.9984 10.0247 -36.8874
C -26.4962 -34.5362 -33.6837
C -25.4269 -34.0855 -34.0286
C 34.1499 -34.0031 2.56514
C 34.367 -34.5434 1.48622
C -7.21936 28.5247 38.2612
C -7.14955 29.647 37.8521
C -16.1948 -30.7257 -22.9962
C -16.2138 -29.79 -23.7361
H 24.266 -22.3585 12.7937
C -19.0429 38.217 36.6756
C -17.8265 38.5813 36.7719
C 5.35727 34.1547 9.65957
C 5.9715 35.2531 9.70288
C -30.24 22.2982 15.1523
C -30.8913 21.2459 15.1438
C 28.8656 31.7569 29.0703
C 29.6275 31.8089 28.0746
C 36.6881 -23.8427 -19.6804
C 36.6444 -24.0607 -20.8898
C -16.7413 23.5665 -10.0401
C -15.5812 23.214 -10.5633
C -32.3362 -14.7429 -15.512
C -32.6223 -14.9435 -14.2918
C 3.91466 -34.5503 -37.2143
C 4.76455 -34.2608 -37.9856
C -6.91932 -13.3417 -2.20306
C -7.38465 -14.205 -3.07124
105
Atoms. Timestep: 100000
C -6.74455 -7.03373 -1.2719
C -5.54417 -6.90306 -1.16958
H 29.0391 23.5738 -39.1138
C 17.6391 4.18274 -24.7702
C 17.0463 3.82742 -23.7707
C -22.3785 -12.7072 -29.448
C -22.1277 -12.4242 -30.6267
C 33.1921 14.4869 -6.20622
C 32.5476 13.5769 -5.7411
C -23.3809 -39.8474 35.4535
C -23.3669 -39.8286 34.2036
C 29.8937 23.6072 -38.3939
C 30.8237 23.6218 -37.6603
C -4.30251 -6.75505 -0.934349
C -3.00444 -6.60874 -0.682263
C -21.9246 -12.2781 -31.9
C -21.6353 -12.0958 -33.0953
C 10.2173 -11.4225 31.0268
C 11.1255 -11.8433 31.5829
C 9.22766 -10.9299 30.1679
C 8.35692 -10.516 29.4767
C -2.69531 27.0006 -5.00697
C -3.15953 25.9572 -4.5948
H 12.0256 -12.2913 32.0533
C -5.13782 -2.27009 -5.39985
C -4.75213 -2.79384 -6.46083
C -23.0656 32.9736 1.6886
C -21.9978 32.8191 2.30404
C -12.2735 -10.8411 26.8596
C -13.2344 -10.6393 27.5799
C -24.213 28.4478 1.19178
C -23.7495 28.001 0.0969543
C -6.58201 -14.0196 24.7328
C -7.7233 -14.1785 24.4294
C 3.77525 -0.00560798 26.3535
C 2.76207 -0.452631 26.8496
C -6.08903 -0.33128 -2.16609
C -6.19576 0.343894 -1.0769
C -5.74138 -0.998156 -3.22657
C -5.51139 -1.70836 -4.31254
C -19.6636 33.0816 3.43262
C -20.8101 32.9081 2.92075
C -10.3803 35.2684 -24.6616
C -10.7025 34.9467 -23.4943
H -10.0333 35.3141 -25.6718
C 4.15155 21.8477 -31.4189
C 4.89257 22.2441 -32.2746
C -10.6067 -0.440806 22.8955
C -11.5653 0.144315 23.1128
C -24.6293 -15.3027 33.8545
C -23.9241 -14.4582 33.2779
C -32.7108 -26.2304 26.2617
C -33.5666 -25.8321 25.5087
C -12.7888 0.80971 23.2331
C -13.8261 1.41225 23.2586
C 10.6883 -31.5306 38.4417
C 10.9486 -31.851 37.2942
C -5.49196 -15.3434 -9.43478
C -6.44833 -14.8046 -9.88816
C 36.4186 35.6352 -31.007
C 36.6571 34.7134 -31.8005
C 0.595407 -6.56653 0.358703
C 1.78639 -6.61996 0.796256
C -0.572426 -6.60837 -0.0678205
C -1.84684 -6.63931 -0.367492
H -9.744 -1.00313 22.6432
C -19.2759 21.6456 -29.3069
C -18.0915 21.4391 -29.2477
C 3.01181 -6.48965 1.10439
C 4.17318 -6.20373 1.38655
C 12.4917 -4.82022 9.045
C 12.1098 -3.81343 8.50023
C 18.3741 38.7423 25.3654
C 19.4555 38.1501 25.2897
C 36.5262 9.41413 -10.1379
C 35.5685 9.44385 -9.40202
C -10.3055 -3.06033 -32.5951
C -10.5828 -2.15919 -31.8533
C -25.9655 -37.102 -39.5946
C -26.9458 -37.4224 39.7633
C 30.2713 -24.0875 4.27972
C 30.1517 -25.1117 3.62244
C -9.38989 24.0225 37.549
C -9.57397 23.3427 36.5596
C -19.7226 -34.7866 -22.9881
C -19.5874 -35.7983 -22.3263
H 37.6446 -12.1093 21.1731
C -16.6448 39.2443 37.2903
C -15.864 38.3401 37.3162
C -1.283 38.4038 10.26
C -0.842667 39.5313 10.2841
C -30.6691 25.5508 15.5864
C -30.5737 24.7845 16.549
C 37.7837 36.3609 37.2095
C 38.6847 36.3403 37.9786
C 36.029 -23.2256 -16.1409
C 36.9448 -24.031 -16.2915
C -13.8246 22.6205 -7.8906
C -15.0391 22.9743 -7.97495
C -34.1257 -20.4688 -16.387
C -35.3332 -20.715 -16.3679
C -7.2054 -23.1199 28.6264
C -6.01896 -23.3906 28.3152
C -7.53391 -4.73497 -14.4147
C -8.34624 -5.3723 -13.7122
105
Atoms. Timestep: 120000
C -1.90477 -5.91204 -7.06006
C -1.04225 -5.42684 -6.36637
H 27.595 23.7959 -31.7855
C 26.2573 2.38879 -31.9332
C 25.9993 1.40331 -31.234
C -26.1251 -10.4696 -31.0877
C -26.9699 -10.271 -31.9218
C 31.2329 -1.60155 -5.61731
C 31.5257 -0.446959 -5.80406
C -27.353 -36.8123 28.468
C -27.642 -36.7576 29.7009
C 28.4163 24.4318 -31.3817
C 29.3723 25.1038 -31.0215
C -0.0248126 -4.96026 -5.63114
C 0.96608 -4.56539 -4.98154
C -27.8463 -10.001 -32.8829
C -28.6466 -9.79157 -33.7763
C 14.3477 -11.3526 36.8914
C 14.6114 -12.391 36.5513
C 14.0436 -9.98672 37.3239
C 13.6661 -8.91674 37.6813
C -5.22752 26.7885 -3.40426
C -5.40545 27.6661 -4.23925
H 14.9058 -13.3688 36.1435
C -1.59741 4.13938 -5.14032
C -0.459027 4.50108 -5.30725
C -17.9305 28.0355 2.07668
C -18.7329 27.3517 2.72306
C -13.2057 -10.4963 36.5667
C -13.809 -9.59414 37.0995
C -25.6018 35.2949 -4.3941
C -25.5573 36.5076 -4.35549
C -4.61856 -12.0617 20.6131
C -5.83847 -11.9449 20.6824
C 1.10336 -6.05468 21.9274
C 2.23728 -5.82128 21.5481
C -4.95529 2.39385 -4.56366
C -6.03273 1.88431 -4.08174
C -3.79575 2.94519 -4.86749
C -2.76577 3.59474 -5.00238
C -20.1616 25.4094 3.43748
C -19.5436 26.424 3.1083
C -16.1575 29.4304 -19.1696
C -17.0981 29.3511 -18.458
H -15.2689 29.445 -19.7568
C -2.35995 19.779 -34.8531
C -2.78197 18.9735 -34.0674
C -10.5226 4.86252 22.6749
C -10.2738 5.9261 22.959
C -21.8147 -12.6402 33.4461
C -22.584 -11.7673 33.8276
C -28.2513 -35.5023 32.9028
C -27.5846 -35.7037 33.8768
C -9.90937 7.2536 23.3756
C -9.44306 8.25386 23.8363
C 23.6666 -26.5799 -39.3896
C 24.4252 -26.3146 -38.4831
C -8.16585 -12.9681 -18.9897
C -7.6567 -13.202 -20.0894
C -35.726 37.8173 -32.6481
C -36.3204 38.8386 -32.7266
C 4.13751 -3.70536 -3.34068
C 5.2006 -3.30774 -2.76409
C 3.0204 -4.01114 -3.83285
C 2.00227 -4.28602 -4.41568
H -10.7832 3.87194 22.4508
C -17.4753 33.9399 -34.1422
C -17.4306 32.8807 -34.7547
C 6.29547 -2.77443 -2.27917
C 7.39822 -2.53626 -1.75198
C 15.7062 -8.31989 10.3082
C 15.6757 -7.46243 9.46448
C 16.9021 31.0849 28.9101
C 15.8929 31.1887 28.2173
C -34.4797 1.32358 -15.2213
C -34.1526 2.48636 -15.2252
C -2.43312 -15.0919 -27.6044
C -3.13399 -14.449 -26.8596
C -26.2608 38.0835 32.8914
C -25.8176 39.2145 32.9242
C 26.3556 -14.3255 5.8957
C 25.9507 -15.4718 5.86816
C -11.7952 18.6761 35.5945
C -11.7766 17.8522 36.5039
C -22.9644 39.1278 -21.6956
C -23.2666 -39.8103 -22.1971
H -28.9389 -1.83106 29.5761
C -15.9784 39.8995 37.9797
C -15.5791 38.7854 37.9562
C -7.89125 -37.366 10.8682
C -7.72684 -36.1475 10.861
C -31.0246 28.4643 16.5129
C -30.3301 28.6815 17.467
C -32.6049 -39.5061 -33.1829
C -33.5236 -39.0309 -32.5296
C 36.1032 -23.2262 -12.6881
C 36.5531 -23.3785 -11.5969
C -13.1712 22.3339 -5.88063
C -12.2238 22.072 -5.23358
C -36.8467 -26.3982 -17.2404
C -37.1675 -26.3186 -18.4604
C -17.9224 -12.0979 14.1102
C -17.019 -12.8344 14.4091
C -8.67967 3.26902 -25.97
C -8.61342 3.87402 -24.8862
105
Atoms. Timestep: 140000
C 0.568837 1.09132 -7.22795
C 1.47321 1.43563 -6.42632
H 26.7985 24.3681 -24.0468
C 34.714 0.395589 -38.8424
C 34.9397 -0.779745 -38.8061
C -30.9283 -8.09531 -33.8485
C -32.0875 -7.84051 -33.6156
C 29.7899 -15.3611 -5.34713
C 30.0343 -16.5157 -5.57096
C -31.9605 -31.5914 24.4743
C -32.5296 -31.7332 25.5102
C 27.1874 25.3362 -24.336
C 27.6483 26.4535 -24.5921
C 2.41013 1.76392 -5.58206
C 3.39889 2.01615 -4.93442
C -33.3435 -7.87195 -33.4856
C -34.5371 -7.8422 -33.2721
C 18.2599 -10.4816 -36.996
C 17.5768 -10.8268 -37.8486
C 18.9826 -9.98557 -35.9396
C 19.4857 -9.58258 -34.9285
C -8.08886 28.1116 -3.31954
C -7.36716 27.7136 -2.40319
H 16.9125 -11.1743 -38.6812
C 3.69532 4.86877 -2.87786
C 4.47552 4.70061 -1.93789
C -16.3511 20.449 4.40785
C -16.9796 20.4485 3.36203
C -14.2842 -9.95539 -33.6839
C -14.213 -8.76454 -33.6141
C -26.0961 -35.7747 -9.17556
C -26.6468 -36.4467 -8.2603
C -4.98502 -9.29339 16.9499
C -4.12631 -9.99453 16.4709
C 1.20064 -11.5284 16.5102
C 1.37244 -12.2939 17.4209
C 0.603763 4.91231 -5.07394
C -0.539462 4.60054 -5.44304
C 1.78447 5.05021 -4.53262
C 2.77886 5.04427 -3.77605
C -17.9991 20.7264 1.10665
C -17.5404 20.5035 2.20442
C -22.0312 23.6859 -13.7061
C -23.2304 23.7744 -13.4889
H -21.0015 23.6456 -14.0052
C -9.68564 16.1532 -36.6986
C -9.50864 17.1439 -37.3662
C -9.73259 12.6706 22.9006
C -8.61252 12.6422 23.0888
C -19.8293 -9.09469 33.4392
C -20.4554 -10.0122 33.9744
C -21.8696 30.2492 34.5758
C -22.1142 31.0246 35.4824
C -7.23213 12.4468 23.3832
C -6.10472 12.3306 23.7882
C 37.7398 -21.2209 -35.6757
C 36.5447 -21.2905 -35.8688
C -10.3086 -10.8478 -29.5595
C -9.35876 -11.3837 -29.0871
C -28.7714 -38.4081 -33.7928
C -28.0203 -39.0229 -33.0594
C 6.41168 3.28604 -3.21302
C 7.41752 3.89471 -2.6036
C 5.4042 2.77222 -3.74214
C 4.38674 2.38465 -4.35691
H -10.7921 12.69 22.5858
C -16.1283 -34.2333 -38.8083
C -16.3479 -34.9456 -39.7418
C 8.28694 4.43191 -1.90391
C 9.09871 5.08119 -1.22574
C 18.9297 -11.5848 11.4315
C 19.3997 -11.1721 10.4033
C 13.6978 23.6964 31.2433
C 14.1125 24.1031 32.2924
C -25.2176 -5.34315 -20.2427
C -24.35 -5.7315 -20.9847
C 5.28189 -26.9773 -22.6099
C 4.318 -26.6429 -21.9656
C -26.2013 36.9952 29.7049
C -25.2335 36.5722 30.2936
C 22.3042 -4.90658 7.54654
C 21.7315 -5.78421 8.18406
C -14.1507 12.3517 34.8258
C -13.9841 13.4455 35.2829
C -26.7481 35.1933 -21.4287
C -26.3354 34.1267 -21.0564
H -15.6465 8.36359 37.8875
C -15.1363 -39.7764 38.4439
C -15.4753 39.0516 38.2204
C -14.4069 -33.1284 11.4723
C -14.5699 -31.9185 11.4302
C -31.0415 31.4077 17.9385
C -30.424 32.4809 17.8676
C -24.1203 -34.6795 -23.8858
C -25.3014 -34.851 -23.9804
C 36.5677 -23.3557 -8.39017
C 35.816 -22.6065 -7.84739
C -10.5274 21.5624 -2.7666
C -11.3426 21.778 -3.62371
C -39.8079 -32.2108 -18.9713
C -38.7583 -31.9219 -19.6272
C -28.4146 -1.28454 -0.161535
C -27.9684 -2.20629 0.543905
C -9.74338 11.7161 -36.6044
C -8.94174 12.6752 -36.7868
105
Atoms. Timestep: 160000
C 4.07686 2.25175 -8.4135
C 4.00473 2.47649 -7.20136
H 26.235 25.5877 -16.7337
C -36.6937 -1.84853 34.1722
C -36.0964 -2.75009 33.5656
C -37.1879 -5.47103 -36.3358
C -37.7911 -5.61326 -35.2787
C 28.9395 -31.4643 -5.47793
C 28.3255 -30.5508 -4.98994
C -36.5782 -26.3274 20.625
C -37.4552 -26.7227 21.3433
C 25.9835 26.5199 -17.3032
C 25.852 27.4906 -17.985
C 3.98491 2.72408 -5.93982
C 4.18851 3.01632 -4.63465
C -38.3766 -5.72829 -34.1077
C -39.0441 -5.87295 -33.0942
C 22.448 -9.27395 -30.2146
C 21.7759 -8.47199 -30.576
C 23.4026 -10.3421 -29.7154
C 24.2935 -11.1135 -29.3497
C -9.85716 27.7124 -1.61278
C -10.9578 27.5437 -2.14
H 21.1135 -7.62825 -30.8498
C -2.82072 5.02349 5.20062
C -4.02575 4.8637 5.30491
C -17.0329 13.7998 3.19748
C -15.8893 13.9583 2.89188
C -14.3779 -7.53868 -24.4441
C -15.4703 -7.83886 -23.9987
C -27.4206 -27.7099 -12.6225
C -26.9204 -28.3893 -13.5791
C -6.48214 -7.87463 12.126
C -6.69268 -6.99458 12.9207
C 3.28259 -18.0688 12.7749
C 3.93739 -17.4658 11.9519
C 1.00984 5.05692 4.46599
C 2.21818 5.0918 4.25009
C -0.250572 5.12737 4.78025
C -1.51028 5.10273 4.8849
C -13.6009 14.7647 2.1203
C -14.6593 14.3393 2.53044
C -28.0607 17.9305 -8.3016
C -29.2989 18.1046 -8.33699
H -26.9981 17.798 -8.53986
C -17.2133 16.9992 39.8965
C -17.1597 18.1132 39.4517
C -6.18807 20.3653 23.3359
C -6.00273 19.2536 23.4297
C -18.4942 -6.50737 34.0052
C -17.6387 -7.25058 33.5496
C -16.2152 15.8061 33.9461
C -16.9048 16.7117 34.3602
C -5.76852 17.8234 23.4471
C -5.54288 16.6738 23.2329
C -30.0989 -15.9162 -32.2023
C -29.1845 -16.1173 -32.9562
C -11.139 -9.18892 39.9554
C -10.949 -9.41391 -38.8938
C -20.0036 -35.2651 -33.3515
C -20.5299 -35.4425 -34.3986
C 5.22937 4.09455 -1.24356
C 5.69831 4.54884 -0.157321
C 4.86331 3.68113 -2.34662
C 4.4015 3.30367 -3.52634
H -6.45778 21.4195 23.1142
C -15.5858 -23.0035 36.8389
C -14.6615 -23.7668 36.8682
C 5.95805 4.98323 1.0095
C 6.227 5.32026 2.20938
C 22.6685 -14.5855 12.1837
C 23.4045 -14.5893 11.2271
C 11.1852 16.9645 35.4504
C 11.5949 16.2288 34.552
C -15.5814 -14.1793 -25.9363
C -16.3515 -13.5295 -25.2707
C 13.0121 -38.9219 -17.5118
C 11.8932 -38.9977 -17.0846
C -24.626 35.9731 29.587
C -25.0539 34.8575 29.5218
C 17.7615 4.26699 9.65487
C 17.1953 3.7028 10.5838
C -15.6377 7.24325 35.9076
C -15.7785 7.51515 34.7246
C -29.6823 29.1054 -20.4983
C -30.3163 30.1264 -20.5668
H -8.55591 16.5224 34.8415
C -14.375 -38.6955 37.8749
C -15.0592 -39.6224 37.5256
C -20.9068 -28.7769 12.0885
C -21.5508 -27.7259 11.9981
C -30.7262 34.9764 19.3173
C -30.8511 35.7167 18.3316
C -16.342 -30.2648 -14.8681
C -17.0844 -30.9335 -15.5815
C 36.2111 -22.8534 -3.58599
C 35.4955 -22.423 -4.47291
C -9.13965 22.1221 -1.41613
C -8.80245 22.0381 -0.164798
C 37.974 -37.8656 -21.1898
C 38.8662 -37.7873 -20.3329
C -38.7961 9.43032 -14.4664
C -39.2244 8.71632 -13.5454
C -9.88112 18.079 31.6908
C -10.0504 16.807 31.8378
105
Atoms. Timestep: 180000
C 4.91119 1.41948 -4.96088
C 4.87989 2.20586 -4.03013
H 25.4584 27.4923 -9.70731
C -27.9524 -4.3036 27.0422
C -27.2431 -4.51887 26.05
C 35.7928 -3.09556 -37.5807
C 36.2152 -3.26503 -36.4158
C 27.0804 34.17 -4.69468
C 27.9303 33.6249 -5.35536
C 38.7061 -21.117 16.7116
C 37.6961 -21.6359 17.223
C 24.7025 27.8835 -10.4
C 23.9887 28.3632 -11.2368
C 4.93317 2.91578 -2.95371
C 4.94928 3.38651 -1.79811
C 36.7627 -3.55727 -35.2563
C 37.2791 -3.78341 -34.1686
C 27.44 -8.75154 -23.1252
C 27.4728 -7.80328 -22.477
C 27.3194 -9.89322 -23.8659
C 27.1704 -10.8387 -24.569
C -13.1979 24.0765 0.0652291
C -12.9018 24.8645 -0.823425
H 27.3608 -6.88835 -21.8672
C -4.8953 -4.60979 3.69716
C -5.82568 -4.76245 2.97589
C -13.8476 8.94316 1.11964
C -13.4865 8.37519 2.1241
C -14.7872 -5.11465 -16.0585
C -13.6402 -4.88501 -16.3244
C -27.9934 -20.6163 -17.5167
C -27.9491 -19.3253 -17.47
C -8.29986 -4.82375 8.6773
C -8.78589 -5.53833 7.81523
C 6.4886 -23.5443 7.57504
C 5.35247 -23.7111 7.92507
C -1.57084 -3.99851 5.68878
C -0.550543 -3.79272 6.3341
C -2.6517 -4.25285 4.94356
C -3.75374 -4.43066 4.34437
C -12.8823 6.70115 4.0028
C -13.1841 7.57598 3.10826
C -34.1591 12.1897 -2.91073
C -35.3065 12.4082 -3.19221
H -33.2307 11.7816 -2.53824
C -23.9482 17.3385 34.3986
C -24.442 18.4326 34.2545
C -2.82148 24.8093 23.3794
C -3.9161 24.6967 23.6695
C -15.31 -5.21891 34.0878
C -14.9653 -4.21922 33.5091
C -11.8159 0.269614 35.3634
C -12.0997 1.29798 34.8215
C -5.29576 24.4724 23.8153
C -6.49393 24.2577 23.8531
C -16.429 -10.9321 -29.966
C -16.3642 -10.6003 -28.7926
C -12.4754 -7.20514 30.0631
C -13.0393 -7.01623 31.1194
C -12.1297 -32.4435 -34.7441
C -12.1097 -31.526 -33.9059
C 5.48353 4.2745 1.85043
C 5.80478 4.65521 2.90634
C 5.17939 3.86252 0.651698
C 5.03891 3.62499 -0.556995
H -1.73755 24.9605 23.1344
C -14.2945 -12.3267 32.4704
C -13.6885 -11.9319 33.4458
C 6.14399 5.16124 4.04848
C 6.44781 5.82035 4.99759
C 26.4832 -17.6087 12.8666
C 27.352 -17.9933 12.1215
C 9.3693 8.96267 38.1369
C 8.36953 9.59227 38.3465
C -9.01782 -23.6795 -29.3445
C -8.73701 -22.5075 -29.3609
C 20.7546 29.0669 -12.3164
C 19.6452 28.5931 -12.2351
C -23.4742 33.8549 29.4008
C -24.4469 34.2328 28.8162
C 13.175 13.4299 11.8268
C 12.6816 13.2368 12.9318
C -16.2607 3.9818 35.5884
C -16.1161 2.79051 35.5323
C -33.8758 24.9926 -19.6777
C -33.0533 24.1286 -19.9643
H -4.84198 25.0629 20.8125
C -13.7602 -37.5121 37.2546
C -14.4972 -38.3648 36.8882
C -27.4612 -24.2726 12.6987
C -28.5069 -23.6675 12.5745
C -30.4672 38.9248 20.2138
C -31.2221 38.5878 19.2821
C -8.7206 -26.0207 -6.02523
C -8.67535 -26.8271 -6.96952
C 35.1816 -22.0491 0.606358
C 35.536 -22.5547 -0.435219
C -6.91524 25.3729 1.74793
C -7.25357 25.2993 0.514473
C 36.3958 36.523 -22.7874
C 35.8406 36.2786 -21.6658
C 30.6916 19.9283 -28.5101
C 29.6027 19.9034 -27.9583
C -10.0985 22.455 20.291
C -9.4489 23.5211 20.5782
105
Atoms. Timestep: 200000
C 5.57241 4.14403 -3.86843
C 5.57321 4.05011 -2.65991
H 25.2631 28.2212 -4.29543
C -19.0446 -6.78127 19.7229
C -18.5243 -6.24275 18.7853
C 29.3185 -0.96801 -37.4237
C 30.4949 -1.08778 -37.0772
C 29.709 18.5484 0.192784
C 28.7006 18.9108 0.744491
C 33.3644 -16.2981 12.7365
C 32.3313 -16.8614 12.9447
C 25.1991 28.6136 -5.29874
C 25.0613 28.9614 -6.40999
C 5.48349 4.03415 -1.37229
C 5.39929 4.03482 -0.117193
C 31.7596 -1.30426 -36.8505
C 32.9395 -1.36246 -36.6723
C 32.2469 -8.84073 -16.4878
C 33.0307 -8.96322 -15.6858
C 31.2176 -8.6963 -17.5282
C 30.3617 -8.62278 -18.3645
C -14.5933 21.4103 2.11854
C -13.9748 21.9335 1.23068
H 33.8167 -9.12899 -14.8928
C 0.945654 -5.3692 -6.00376
C 1.38304 -5.03266 -7.15095
C -9.76005 2.41848 2.86437
C -10.7917 1.71506 2.806
C -12.901 -2.23725 -8.20725
C -14.1072 -2.39541 -8.12821
C -28.4986 -11.6247 -22.3428
C -29.0446 -12.1691 -21.4236
C -9.85407 -2.6635 2.257