294
Atoms. Timestep: 0
C 3.4295 5.98189 0.592621
C 4.29832 5.25568 1.18832
H 0.293047 4.94272 -6.72361
C -22.3162 37.5838 33.395
C -23.0993 37.2695 34.2613
C -10.5973 -4.11266 -4.09078
C -9.66602 -3.65019 -3.3244
C -6.54798 5.40535 0.630211
C -6.76603 4.2197 0.960665
C -2.22568 -2.74323 6.07708
C -3.25438 -2.55295 5.57859
C 0.479356 3.84678 -6.49379
C -0.560351 2.86732 -6.42309
C 5.1639 4.46024 1.69313
C 6.19301 3.65618 2.19068
C -8.71678 -3.11923 -2.67966
C -7.76386 -2.56851 -2.06909
C -3.08111 13.1984 -5.31687
C -3.83809 13.8525 -5.88878
C -2.26641 12.3134 -4.56988
C -1.59517 11.5431 -3.97956
C 6.27174 6.55689 -5.155
C 5.06153 6.38082 -4.8788
H -4.54358 14.4588 -6.43554
C -6.61975 -1.96853 -1.54187
C -5.95213 -2.83185 -0.700983
C -0.879174 10.771 -3.23936
C -0.115883 9.97478 -2.55263
C -0.0540305 -3.07176 7.24204
C -1.06804 -2.92438 6.71153
C -1.35383 -6.48498 0.213351
C -0.635847 -6.87664 0.968253
C 2.88583 -5.34114 -3.40931
C 2.76789 -4.82217 -4.41054
C 6.7115 7.94213 -1.01659
C 6.41232 6.8242 -1.45981
C -5.19282 1.57578 -3.24124
C -4.8638 2.55132 -3.66663
C -5.7166 0.301763 -2.6267
C -6.11593 -0.650363 -2.17487
C 1.43134 8.3775 -1.39279
C 0.710262 9.17549 -1.99576
C 1.17215 -3.18377 7.92099
C 2.00185 -2.32313 7.23355
H 1.43449 -3.86395 8.76026
C 0.630707 -8.35074 2.89259
C 0.632277 -7.2349 1.84314
C 6.00457 -1.67772 3.79819
C 6.33521 -0.954816 2.56721
C -5.17334 -2.12347 4.04802
C -4.33329 -2.28735 4.83088
C -4.74346 -5.78827 1.58526
C -3.65029 -5.86683 2.67976
C 6.5784 -0.407975 1.60583
C 6.6302 0.370413 0.38189
C -5.04919 -4.64456 0.882612
C -5.41736 -3.66206 0.0645825
C -20.1736 34.7049 25.5786
C -20.561 35.0657 26.6882
C -7.29566 -2.6565 2.50247
C -6.32904 -1.77448 3.11672
C 4.55761 1.12081 4.56318
C 3.9848 0.251155 5.26879
C 5.07953 1.93428 3.79445
C 5.61134 2.76287 3.00948
H 6.27962 -1.15497 4.75222
C -7.77901 -6.71182 -3.28945
C -8.97393 -7.15037 -3.44122
C 3.30905 -0.618936 5.91629
C 2.70303 -1.5033 6.55488
C -3.67245 -0.905558 -5.22832
C -3.07042 0.132208 -5.72379
C 0.691322 -5.14363 4.22004
C -0.494711 -5.5285 4.3425
C -3.16106 4.55963 -3.63476
C -4.21499 3.80225 -4.25092
C -2.87887 -6.0157 3.47385
C -1.77154 -6.05861 4.61254
C -2.36083 -6.01707 -0.798554
C -3.10257 -5.70981 -1.57992
C 2.7405 6.71749 -0.0262783
C 1.99633 7.49695 -0.699251
C 2.98524 -4.10041 3.98186
C 1.79843 -4.67862 4.0797
C -11.9412 -6.41588 0.136784
C -12.9063 -6.88964 -0.247892
H 1.491 -8.77475 3.39575
C 6.93026 1.06949 -2.21134
C 6.72963 0.715018 -0.702784
C 4.96932 -2.56824 3.80191
C 4.02844 -3.37577 3.88365
C -8.90163 -4.31474 1.46005
C -8.15243 -3.47329 2.01116
C -15.9246 1.37725 -39.3492
C -14.9949 1.60921 -38.5913
C 32.0317 17.1532 -6.69587
C 32.9792 16.4307 -6.8013
C -1.75096 -9.12497 3.28137
C -0.591107 -8.81833 3.14357
C 14.3951 8.43822 -14.2645
C 13.7341 7.42932 -14.3615
C -1.89626 -8.76274 7.41081
C -1.94239 -9.59184 8.263
C 11.6883 10.3058 -7.7869
C 10.9854 9.72988 -7.16593
C 0.562631 6.13349 2.77334
C 1.22927 5.647 3.58587
H 7.27023 3.86958 2.11737
C -4.30474 -5.2196 -2.46403
C -4.21258 -4.05954 -3.16218
C 2.67182 6.07608 -4.17537
C 3.85378 6.16158 -4.52899
C -4.25905 -3.06869 -3.9799
C -4.15245 -2.01171 -4.6934
C -4.08315 -10.0326 3.64537
C -2.96749 -9.59522 3.5394
C 4.09798 -5.8159 1.2728
C 5.207 -5.32915 1.59164
C -6.61294 -6.19187 -3.08191
C -5.56476 -5.81397 -2.74155
C 0.28326 6.08071 -3.39829
C 1.42851 6.02013 -3.78677
C -10.7589 -5.76841 0.648534
C -9.89298 -5.112 1.00585
C -1.45776 1.99823 -6.32674
C -2.32306 1.10333 -6.13907
C -1.80483 -18.8749 16.6879
C -1.67248 -17.683 16.7339
H -13.8698 -7.36952 -0.567278
C 4.00927 4.44794 6.28755
C 4.77456 4.08869 7.02785
C 9.68489 -1.50028 0.443556
C 10.1656 -0.430761 -0.0592474
C -1.88664 -7.8261 6.43992
C -1.86675 -7.0325 5.59647
C -6.71499 1.84452 1.6979
C -6.8099 3.00783 1.3221
C -6.57328 -0.532926 2.59394
C -6.74734 0.606455 2.07135
C -5.79667 7.79014 -0.225248
C -6.18539 6.5426 0.219655
C -24.0558 8.99241 -21.9441
C -24.9748 9.73133 -21.6254
C 6.34739 2.14396 -2.67313
C 5.71097 3.32336 -3.06719
C -2.28102 5.2099 -3.31206
C -1.06916 6.00927 -2.78195
C 1.65275 3.21146 -6.23245
C 2.71007 2.45735 -5.95835
H 21.5276 -12.6974 35.2512
C -1.35323 6.53256 -1.61613
C -1.77929 7.11411 -0.470854
C 21.6361 -13.406 36.1003
C 21.6827 -14.1194 36.9723
C 5.99421 4.60575 -2.49012
C 6.1876 5.64257 -1.97897
C 3.83809 2.81926 -4.91957
C 4.64664 3.11788 -4.22694
C 2.40332 -0.0121471 -7.09055
C 2.5551 1.13044 -6.54437
C 2.39679 -1.16906 -7.54272
C 2.51673 -2.60072 -7.83786
C -12.6342 -8.22523 -3.59584
C -13.8613 -8.56431 -3.47058
C 9.63277 7.84973 -5.88188
C 10.1602 8.65052 -6.4159
C -6.03136 -7.90623 0.64633
C -5.39391 -6.9485 1.08963
C -0.993351 6.79368 0.832541
C -0.338223 6.49703 1.69466
H -6.43794 8.58806 -0.705849
C 8.89381 6.71892 -5.12193
C 7.53914 6.60998 -5.12759
C 2.87352 -5.77352 -1.96967
C 2.86481 -5.96925 -0.871273
C 13.2071 11.3577 -9.68198
C 12.6382 10.9893 -8.81228
C 2.89321 -6.28935 0.64476
C 1.75338 -6.76841 1.29451
C -12.4475 -4.99333 -5.38451
C -11.5815 -4.53121 -4.72814
C -11.3712 -8.00081 -3.61463
C -10.1364 -7.63975 -3.56639
C -2.11424 32.3729 2.21293
C -1.91266 31.3316 1.67776
C -4.40429 7.61549 -0.409719
C -3.25419 7.44584 -0.447028
C -36.6093 32.8063 -37.4222
C -37.3822 32.3829 -36.5441
C 6.29355 -4.76173 1.64952
C 7.32871 -4.07684 1.70245
H 13.8525 11.7385 -10.4652
C -13.2774 -5.67455 -6.14343
C -13.9508 -6.32799 -6.88882
C 2.60275 -4.1105 -5.68042
C 2.58891 -3.44953 -6.59774
C 2.53674 -3.54404 -10.2579
C 2.5579 -3.1339 -9.10883
C -3.33293 5.76271 29.5064
C -3.37331 6.80088 28.8855
C 32.2254 14.5834 -37.3061
C 33.1584 14.1347 -37.9426
C -13.4989 7.61279 -16.3315
C -14.489 7.1426 -16.8511
C 33.1573 12.0255 -21.4862
C 33.1829 13.1554 -22.0844
C 10.4353 2.65734 -2.22995
C 10.2569 3.59491 -3.04911
C -4.54148 3.98758 -5.57444
C -4.82825 4.13818 -6.72045
C 30.2994 15.4208 -35.8938
C 31.2535 15.0651 -36.5509
H 6.88971 3.16487 9.87712
C -31.9814 26.3438 32.075
C -32.6892 26.3968 31.1055
C 16.3507 0.412771 14.2081
C 15.327 0.335177 14.8751
C 6.28127 3.3538 9.00167
C 5.64814 3.73341 8.15356
C 10.5325 1.66934 -1.40219
C 10.3944 0.67483 -0.700027
C 25.5132 -30.3268 36.3764
C 25.4015 -29.7519 37.4252
C 33.0129 -2.86276 -21.7792
C 33.5641 -1.8719 -21.3846
C -38.7859 31.2227 -34.8382
C -38.078 31.7641 -35.6379
C -25.9191 38.3101 -4.76977
C -26.5421 39.3554 -5.00107
C 9.09983 -2.47871 1.03323
C 8.37596 -3.35179 1.54592
C -33.2827 -35.0798 -34.9463
C -32.0923 -35.1778 -34.903
H 15.9046 21.2538 -27.8899
C 7.88547 0.213415 -3.06622
C 8.56942 -0.519081 -3.62878
C -6.65489 -8.8344 0.0314485
C -7.39064 -9.72049 -0.509281
C -22.1253 26.5872 18.6656
C -21.5892 25.7209 18.0308
C 33.1388 10.948 -20.7564
C 33.2473 9.812 -20.2225
C 4.58213 17.2484 -15.9649
C 4.63814 16.7667 -14.86
C 9.49155 5.59854 -4.53411
C 9.9949 4.61493 -3.86224
C 21.5021 -15.3384 39.3416
C 21.6664 -14.7999 38.2524
C 32.6677 -4.01521 -22.1958
C 32.4649 -5.17827 -22.5136
C 2.18354 5.18528 4.55954
C 2.9768 4.8288 5.2766
C 5.13224 -17.6996 0.28721
C 4.76481 -18.8258 -0.0435435
H 16.2185 21.7056 -28.4787
C -38.3979 -16.7981 18.6656
C -37.4728 -17.5801 18.7663
C -34.8713 -26.7024 9.48505
C -33.8375 -27.1753 9.83842
C 18.9883 -9.9147 -27.6357
C 18.2874 -9.6574 -28.5838
C -36.9761 -25.2906 8.90752
C -35.9792 -25.9995 9.14551
C 36.0503 -17.2847 13.0001
C 36.1214 -18.3793 13.5058
C -10.6225 -34.4295 -14.3395
C -10.0336 -35.1684 -15.0792
C -8.29625 -13.8645 26.7537
C -7.49592 -13.2969 27.4499
C 34.8439 -23.0767 -22.4404
C 33.8502 -22.7965 -21.8205
C 10.0673 -1.94406 -5.19187
C 9.36785 -1.27765 -4.43034
C -12.8184 -26.8105 -10.969
C -12.5299 -25.5523 -11.003
H -24.2711 -11.9059 -25.1992
C -29.6625 -34.925 -19.0937
C -28.6755 -34.1757 -19.3497
C 28.3222 17.2792 1.07444
C 28.0565 18.487 0.858373
C -29.909 8.8268 11.7438
C -30.0174 7.82485 12.5447
C -13.6885 10.4138 -24.8194
C -12.521 10.1406 -25.2769
C 20.3273 -13.5551 -37.6551
C 20.2349 -13.7072 -36.404
C -24.7142 27.3847 -15.4191
C -24.6044 27.5593 -14.2563
C -22.613 8.21503 -8.92825
C -23.86 8.23114 -9.28904
C -27.9998 -3.75399 4.73699
C -29.2815 -3.65187 4.81842
C -17.8737 35.9579 32.2165
C -16.9691 35.1729 32.8046
294
Atoms. Timestep: 20000
C 4.0605 4.91316 1.28396
C 4.56062 4.2259 2.1956
H 1.03864 4.0226 -6.73664
C -25.5407 -36.549 28.4698
C -26.5102 -37.0576 28.9596
C -10.8968 -4.46687 -4.24975
C -9.94487 -3.89475 -3.82161
C -7.77631 4.76089 -1.18239
C -7.91358 3.49096 -0.947341
C -4.90756 -1.26309 5.76041
C -5.62289 -1.33768 4.85843
C 0.918387 2.89825 -6.53685
C -0.246091 2.06051 -6.75193
C 5.27321 3.55193 3.02728
C 5.86052 2.77798 3.98367
C -8.83495 -3.43032 -3.391
C -7.75734 -3.03227 -2.8485
C -2.26243 10.8862 -6.10279
C -3.08886 11.4114 -6.69724
C -1.32467 10.1129 -5.41932
C -0.670093 9.47703 -4.66135
C 5.90984 4.98 -4.72325
C 4.59995 4.95583 -4.58645
H -3.87083 11.9184 -7.25695
C -6.53803 -2.44281 -2.44807
C -5.88997 -2.802 -1.20619
C 0.0997727 8.93659 -3.74926
C 0.84602 8.27865 -2.96291
C -3.23651 -1.06023 7.63501
C -4.06266 -1.15532 6.85065
C -1.54255 -6.31776 0.845358
C -0.944242 -6.43809 1.76691
C 2.70585 -5.96807 -2.1633
C 2.60395 -5.76418 -3.25671
C 6.2733 7.14593 -1.06524
C 6.30054 5.97742 -1.3809
C -5.03229 0.626045 -4.5909
C -4.57514 1.50976 -5.15032
C -5.54389 -0.499032 -3.88404
C -6.00056 -1.31566 -3.22951
C 2.23388 6.9104 -1.3156
C 1.55237 7.58338 -2.1526
C -2.28652 -1.03124 8.71582
C -1.15046 -0.582072 8.19532
H -2.49445 -1.24853 9.78057
C -0.297724 -7.11923 4.39268
C -0.00346576 -6.56585 3.04552
C 5.92072 -1.06724 5.51988
C 6.09565 -0.761858 4.07585
C -7.25095 -1.75115 3.0201
C -6.54199 -1.51367 3.90939
C -4.82108 -4.61591 2.06969
C -3.96625 -4.25986 3.33254
C 6.20825 -0.52731 2.967
C 6.37966 -0.335844 1.49748
C -5.09196 -3.78787 0.957732
C -5.45735 -3.25545 -0.0803447
C -23.8846 -33.1854 23.4576
C -24.0556 -34.2388 22.8707
C -8.36669 -3.41403 1.37461
C -8.23881 -2.11139 1.95653
C 3.02231 1.14743 5.88597
C 2.00751 0.820366 6.43585
C 4.03287 1.52182 5.30723
C 4.94335 2.00632 4.68414
H 6.54574 -0.72694 6.35104
C -7.81972 -6.985 -2.88859
C -8.96296 -7.37987 -3.07102
C 0.977964 0.367522 7.09704
C -0.0677478 -0.145861 7.63611
C -2.75504 -1.86231 -5.51028
C -2.29232 -0.895496 -6.02498
C 0.0835823 -3.46152 5.70286
C -1.18991 -3.65629 5.63073
C -3.33339 3.6739 -5.09122
C -4.11705 2.65763 -5.85934
C -3.32801 -4.00318 4.21034
C -2.54876 -3.87666 5.58408
C -2.50861 -6.22236 -0.310894
C -3.11576 -6.0978 -1.2341
C 3.52955 5.5685 0.401238
C 2.86001 6.26021 -0.428773
C 2.49369 -2.74164 5.59409
C 1.30459 -3.11184 5.71648
C -9.34142 -9.60515 -0.390566
C -9.72302 -10.64 -0.680302
H 0.344646 -6.98459 5.26646
C 6.87666 0.162287 -1.09998
C 6.51288 -0.187458 0.37698
C 4.74652 -1.71578 5.58974
C 3.67636 -2.31645 5.65492
C -8.66838 -5.84938 0.562722
C -8.55813 -4.68141 0.965378
C -7.46967 7.67948 -30.3504
C -6.50593 7.9544 -29.6781
C 32.272 17.2788 -2.74206
C 33.301 17.9438 -2.81377
C -2.74071 -7.82734 4.45527
C -1.5772 -7.51778 4.4506
C 12.4515 4.89247 -13.6773
C 12.1465 4.52001 -14.7873
C -3.96964 -4.48442 9.16585
C -4.56411 -4.72044 10.2058
C 11.0908 7.60951 -8.88089
C 10.6469 7.04587 -8.01711
C -0.203547 7.10219 1.77014
C 0.517436 6.84372 2.59829
H 6.94331 2.522 4.0132
C -4.02493 -5.84124 -2.47756
C -3.65441 -4.841 -3.29796
C 2.11134 5.09941 -4.21857
C 3.36015 5.0723 -4.42984
C -3.3712 -3.86562 -4.07585
C -3.13637 -2.86945 -4.85911
C -5.09172 -8.70712 4.33301
C -3.97466 -8.31156 4.34028
C 3.46666 -5.23044 2.76614
C 4.49929 -4.8115 3.2564
C -6.58794 -6.54402 -2.76563
C -5.39912 -6.2209 -2.59879
C -0.391315 5.2742 -3.79073
C 0.840185 5.1811 -4.0492
C -9.05641 -8.25612 -0.0447863
C -8.84841 -7.15482 0.187066
C -1.0575 1.23673 -6.74201
C -1.72964 0.156513 -6.40986
C 1.79283 -12.1345 9.47852
C 0.943368 -12.8291 10.0304
H -9.96153 -11.66 -1.00593
C 3.18436 6.02902 5.52515
C 3.83887 5.52852 6.29647
C 9.56421 -1.46171 2.79949
C 9.94873 -0.515823 2.00824
C -3.57042 -4.3084 7.95267
C -3.07106 -4.08589 6.83942
C -8.10802 1.17602 -0.12097
C -8.00463 2.37382 -0.653581
C -8.20266 -0.971825 1.1346
C -8.14358 0.107504 0.526702
C -6.93095 7.17714 -1.55697
C -7.45011 5.99846 -1.40256
C -19.3643 7.67118 -14.7438
C -20.1962 8.18577 -15.4526
C 6.32683 1.26273 -1.72745
C 5.70652 2.19114 -2.44263
C -2.72617 4.40928 -4.5034
C -1.761 5.24459 -3.5581
C 1.92549 2.11002 -6.07385
C 2.90806 1.26495 -5.59342
H 19.0617 -15.7611 37.6523
C -2.25974 6.07207 -2.51862
C -2.77235 6.85277 -1.5213
C 19.3301 -14.7181 37.368
C 19.5482 -13.6847 36.9782
C 5.93825 3.58184 -1.98369
C 6.12068 4.6683 -1.63375
C 3.88782 1.63635 -4.3644
C 4.67696 1.91813 -3.65809
C 2.48017 -1.22443 -6.3142
C 2.67897 -0.0527138 -5.96711
C 2.09274 -2.42158 -6.68454
C 1.83238 -3.72852 -6.83626
C -12.1499 -8.99494 -3.97489
C -13.1087 -9.55371 -4.46202
C 9.35474 5.61301 -6.18791
C 9.9428 6.17037 -6.96156
C -5.03333 -7.05527 1.42385
C -4.94956 -5.94063 1.7079
C -1.81742 7.11432 -0.294015
C -1.14398 7.16844 0.59493
H -7.52483 8.10569 -1.671
C 8.57138 4.926 -4.97448
C 7.19047 4.97359 -4.92149
C 2.67357 -6.04338 -0.642076
C 2.58211 -6.02272 0.472076
C 12.0019 9.07837 -10.8654
C 11.5946 8.49968 -10.0227
C 2.36622 -5.75773 2.00012
C 1.17625 -6.1662 2.56331
C -13.0957 -5.403 -4.99724
C -11.9393 -4.95334 -4.63865
C -11.0549 -8.40551 -3.54174
C -10.0954 -7.83332 -3.2053
C -2.90298 28.159 0.0202862
C -2.591 29.2196 -0.405087
C -5.40016 7.13128 -1.53682
C -4.27547 7.06689 -1.52604
C -36.6288 33.4374 -33.245
C -35.6124 33.7501 -33.7998
C 5.59933 -4.29296 3.4852
C 6.75142 -3.82905 3.61486
H 12.376 9.46696 -11.8085
C -14.1841 -5.88712 -5.56835
C -15.2327 -6.16021 -6.13876
C 2.33052 -5.18846 -4.61401
C 2.12325 -4.70398 -5.60293
C 0.351286 -4.73053 -8.71437
C 1.05788 -4.18702 -7.90068
C -3.10645 -4.9571 29.3592
C -3.11753 -3.9001 28.6514
C -38.5809 7.97618 -32.9075
C -39.4957 8.09321 -32.0941
C -7.4692 3.32958 -14.7951
C -7.65874 3.81796 -15.9022
C 36.3701 10.092 -18.4765
C 37.4336 10.6861 -18.6301
C 9.90976 2.05244 -0.846709
C 9.67592 2.77805 -1.85106
C -4.56742 2.98769 -7.16716
C -4.96404 3.31998 -8.29572
C -36.8728 7.52573 -34.7782
C -37.6451 7.7192 -33.8163
H 6.09704 3.94995 8.83492
C 32.7061 31.7365 26.3407
C 33.1657 30.6033 26.3537
C 14.7839 5.1262 1.77226
C 13.7657 4.99871 2.41539
C 5.34998 4.4522 8.13414
C 4.69532 4.98945 7.41579
C 10.0908 1.25865 0.150525
C 10.0778 0.351102 1.09939
C 21.6558 -31.8121 31.3499
C 21.8832 -32.3434 30.2908
C 27.8979 -6.04847 -17.739
C 28.4406 -5.9643 -18.9351
C -33.2385 34.5354 -34.2584
C -34.406 34.121 -34.0841
C -31.7934 30.5365 -14.6105
C -32.3008 31.5782 -15.033
C 8.80769 -2.35179 3.32695
C 7.81114 -3.09037 3.57141
C -37.0677 -25.3278 -39.2971
C -35.9242 -25.7878 -39.2559
H 32.1912 -5.51585 -18.6413
C 7.73664 -0.591018 -2.02723
C 8.46592 -1.05795 -2.79436
C -5.07344 -8.36558 1.11057
C -5.12088 -9.55419 0.952953
C -29.8209 22.1077 18.1629
C -30.0148 21.4359 19.1412
C 35.3085 9.45339 -18.145
C 34.3373 8.7659 -17.9377
C 7.15588 14.304 -9.65574
C 6.33026 14.509 -8.7694
C 9.10496 4.16103 -3.95304
C 9.37371 3.41824 -2.91295
C 20.3907 -11.1326 36.4003
C 19.9615 -12.294 36.6521
C 27.3447 -6.10005 -16.602
C 26.6933 -6.17465 -15.5892
C 1.47259 6.52495 3.6742
C 2.30031 6.35898 4.4339
C -4.57597 -17.6736 -5.59798
C -5.03375 -17.1438 -4.62855
H 32.4766 -5.00428 -19.2145
C -36.2007 -19.0858 19.1369
C -35.8171 -19.1457 17.9929
C -40.0357 -27.8847 9.74016
C -38.9946 -28.472 10.0992
C 15.0809 -8.18375 -24.7012
C 14.5091 -8.65157 -23.7615
C 37.7589 -27.0518 9.00309
C 38.8493 -27.3857 9.35827
C 31.6287 -10.3808 14.6691
C 30.5533 -10.0418 15.0741
C -7.35077 -34.8768 -17.8934
C -8.1059 -34.0916 -17.276
C -9.74056 -16.1053 25.5087
C -10.4586 -16.6897 24.7039
C 30.7325 -20.9937 -19.799
C 29.9405 -20.6807 -18.9559
C 10.1384 -2.35622 -4.16697
C 9.33372 -1.62838 -3.66482
C -12.9159 -28.4301 -8.82261
C -13.0532 -29.6823 -8.97028
H 26.5712 29.081 -24.3299
C -26.5196 -24.9226 -28.1932
C -27.1795 -25.8617 -27.7259
C 29.8572 22.3465 1.44082
C 30.4158 21.2787 1.06861
C -32.5073 2.48833 20.2792
C -33.4926 1.80609 20.2215
C -7.55013 19.8387 -30.1725
C -6.94511 20.4441 -29.3621
C 21.4475 -15.0362 -25.5469
C 21.625 -14.6496 -26.6505
C -24.7735 22.1871 -15.6493
C -25.7379 22.7974 -16.0489
C -24.9521 6.36497 -1.14656
C -25.1419 6.74689 -0.0276251
C -35.347 -10.9856 15.2585
C -35.5445 -10.7591 14.0919
C -11.3711 29.1534 32.1498
C -12.5386 29.4231 31.6477
294
Atoms. Timestep: 40000
C 3.94275 5.32346 -1.17213
C 4.53445 4.90819 -0.156633
H 2.65892 1.66341 -7.98895
C -31.6637 -29.1794 22.9422
C -31.0538 -28.3042 22.363
C -11.0284 -3.2953 -1.85004
C -9.79824 -3.20837 -2.20801
C -5.85631 3.52659 -2.94454
C -6.12481 2.54093 -2.18744
C -3.42585 -1.60857 5.58892
C -4.23229 -2.02365 4.91971
C 2.68108 0.785214 -7.27467
C 1.5851 -0.131816 -7.05942
C 5.16579 4.53655 0.929125
C 5.74714 4.12209 2.12676
C -8.50746 -3.19865 -2.37269
C -7.35392 -3.15306 -2.48726
C 0.162489 10.0622 -10.9574
C -0.242455 10.6353 -11.8572
C 0.662746 9.39459 -9.77348
C 1.07474 8.87752 -8.84114
C 7.48079 3.83974 -5.71364
C 6.14333 3.92112 -5.89825
H -0.642153 11.0655 -12.8036
C -5.91443 -2.9888 -2.46198
C -5.41649 -3.75524 -1.45044
C 1.52424 8.20107 -7.69371
C 1.87392 7.72305 -6.68658
C -1.57342 -0.986337 7.30594
C -2.44509 -1.25554 6.61803
C -1.37571 -7.07898 0.981627
C -0.618864 -7.16641 1.81377
C 4.38007 -6.62001 -1.61907
C 4.90502 -6.39626 -2.60697
C 7.49699 7.49499 -3.21526
C 7.34975 6.31279 -2.9496
C -3.96072 -0.755101 -5.2781
C -3.39115 -0.134791 -6.05072
C -4.62943 -1.46684 -4.19066
C -5.17024 -2.10821 -3.43176
C 2.60855 6.64332 -4.44644
C 2.24378 7.16964 -5.56955
C -0.539433 -0.708132 8.31374
C 0.277522 0.139931 7.69264
H -0.39073 -1.04138 9.38287
C -0.00934564 -7.617 4.43925
C 0.296145 -7.17278 3.00489
C 5.53888 -0.553956 5.86338
C 5.8963 -0.0349057 4.56884
C -5.87078 -2.62053 2.9723
C -5.15505 -2.44053 3.82745
C -4.55588 -5.82501 1.66976
C -3.67202 -5.39431 2.87267
C 6.08031 0.375602 3.52912
C 6.28962 0.765216 2.11476
C -4.80949 -5.1329 0.561633
C -5.06566 -4.52774 -0.498197
C -28.3619 -23.7564 21.65
C -27.799 -22.7358 21.4095
C -7.68866 -3.64457 1.59712
C -6.81853 -2.59997 1.76685
C 3.27768 2.98346 4.9011
C 2.49029 2.41943 5.74616
C 4.05168 3.36284 3.97421
C 4.80414 3.73925 2.98732
H 6.1888 -0.319567 6.71757
C -7.59696 -7.54053 -2.16963
C -8.90216 -7.72601 -2.07458
C 1.70191 1.75078 6.50951
C 1.00346 0.901019 7.15469
C -1.68815 -3.56415 -5.91852
C -0.941418 -2.70971 -6.40595
C -0.0644089 -3.45016 5.26416
C -1.19777 -4.02954 5.14948
C -1.76444 1.92044 -6.40891
C -2.63692 0.722508 -6.94433
C -3.16559 -5.21735 3.82979
C -2.34621 -4.74998 5.14083
C -2.33424 -7.06578 -0.182523
C -2.96679 -6.95964 -1.10771
C 3.40821 5.85526 -2.2116
C 2.9578 6.20108 -3.31868
C 2.20921 -2.36699 5.67217
C 1.06634 -2.95402 5.47755
C -11.2801 -8.87275 2.17834
C -11.9135 -9.81379 2.38694
H 0.76453 -7.371 5.26448
C 7.00596 0.813283 -0.450538
C 6.52527 0.844901 1.02013
C 4.34249 -1.19345 5.95696
C 3.32876 -1.77233 5.81455
C -9.13799 -5.64807 1.47109
C -8.36318 -4.60952 1.54817
C 0.930594 13.944 -21.4423
C 1.90439 14.2377 -20.8153
C 32.4612 18.9312 2.15493
C 32.0152 19.95 2.70661
C -1.94938 -9.17379 4.65936
C -1.00725 -8.38929 4.51831
C 7.83418 6.14192 -9.28195
C 7.35117 5.72505 -8.25502
C -2.81361 -7.0502 8.36923
C -3.05934 -7.7915 9.28861
C 13.5601 5.86934 -8.28158
C 12.8704 5.28745 -7.62489
C 0.719529 6.6368 -0.261556
C 1.38327 6.84994 0.646535
H 6.84899 3.97688 2.30711
C -3.79701 -6.77327 -2.44908
C -3.36385 -5.94073 -3.45201
C 3.71735 3.7628 -6.04692
C 4.98713 3.91125 -6.02856
C -2.88931 -5.13318 -4.34289
C -2.34818 -4.35077 -5.18577
C -3.83952 -10.7244 4.86218
C -2.92535 -9.96164 4.84151
C 3.76085 -5.89713 3.13432
C 4.62062 -5.32854 3.65345
C -6.30183 -7.41007 -2.19111
C -5.14642 -7.13696 -2.2506
C 1.25183 3.79938 -5.94137
C 2.47646 3.76769 -6.02874
C -10.5518 -7.7403 1.85582
C -9.82849 -6.71833 1.69364
C 0.772074 -0.974873 -6.83695
C -0.102558 -1.8169 -6.63056
C 9.62808 -10.9179 5.9863
C 10.0064 -10.592 7.06971
H -12.4481 -10.7531 2.63078
C 3.0877 7.48077 4.22842
C 3.53797 7.57934 5.27427
C 9.13208 -1.10925 3.42413
C 9.62322 -0.263427 2.76
C -2.5847 -6.27394 7.28406
C -2.41059 -5.51043 6.36346
C -6.47171 0.497076 -0.737321
C -6.36321 1.51269 -1.46254
C -6.80822 -1.42945 0.866122
C -6.72436 -0.544048 0.1465
C -5.15399 5.58252 -4.36332
C -5.58986 4.47867 -3.60469
C -14.9918 6.52993 -7.87204
C -15.1732 6.4828 -9.05647
C 6.70923 1.7184 -1.45536
C 6.37869 2.50616 -2.51475
C -1.13057 2.73929 -6.00926
C -0.169695 3.93881 -5.56945
C 3.79899 0.465367 -6.51744
C 4.95689 0.228193 -5.81937
H 19.5235 -9.48941 37.3251
C -0.604346 4.8002 -4.64382
C -1.13492 5.68125 -3.75909
C 18.9072 -10.2952 36.9213
C 18.2858 -11.1233 36.5111
C 6.65142 3.93747 -2.55707
C 6.94564 5.0301 -2.78564
C 5.41284 1.1088 -4.60585
C 5.77672 1.73089 -3.76598
C 5.89972 -2.29788 -5.89784
C 5.46517 -1.11319 -5.84225
C 6.48933 -3.43342 -5.74155
C 7.09181 -4.70826 -5.49919
C -12.6133 -8.10736 -1.32337
C -13.6863 -8.25336 -0.788139
C 11.0078 4.29845 -6.06584
C 11.7428 4.64186 -6.81305
C -6.09032 -7.97195 1.78468
C -5.42232 -7.01355 1.68117
C -0.460744 6.01823 -2.4347
C -0.0155264 6.31861 -1.42119
H -5.77428 6.3259 -4.91935
C 9.94882 3.80098 -5.01404
C 8.60676 3.82212 -5.43439
C 3.78378 -6.64685 -0.317309
C 3.31517 -6.67232 0.718169
C 15.5015 7.03646 -9.59126
C 14.6727 6.50537 -9.07398
C 2.80761 -6.6139 2.20725
C 1.54229 -6.91319 2.53651
C -13.4092 -3.49923 -1.21575
C -12.1946 -3.3849 -1.48914
C -11.3823 -7.9467 -1.69768
C -10.1213 -7.91852 -1.95028
C -3.19437 25.6967 -2.81738
C -3.75514 25.4057 -1.80924
C -3.72972 5.70538 -4.18086
C -2.6048 5.77095 -3.99774
C -30.5166 36.1865 -30.9404
C -31.5812 35.9906 -31.5298
C 5.73192 -4.62726 4.0674
C 6.66921 -3.9183 4.23315
H 16.2957 7.66195 -10.0176
C -14.6603 -3.56382 -0.886347
C -15.7839 -3.64786 -0.393788
C 5.62478 -5.93003 -3.71762
C 6.31739 -5.51802 -4.52971
C 8.70567 -5.75355 -7.38753
C 7.88711 -5.26737 -6.5514
C -2.83992 -15.5966 29.1106
C -2.9056 -14.5128 28.5216
C -27.7488 0.88881 -30.4317
C -26.9894 1.01573 -31.3904
C -1.02371 -0.67165 -12.2679
C -0.723202 0.0393632 -13.1946
C 39.1015 7.82014 -15.3017
C -39.814 7.37931 -14.8366
C 10.5174 2.29152 -0.033151
C 10.4921 2.86807 -1.19784
C -2.98614 0.814071 -8.23416
C -3.28402 0.937119 -9.47743
C -29.1876 0.893619 -28.3918
C -28.5187 0.846083 -29.3959
H 4.73073 7.33125 8.73215
C 18.0855 35.6621 20.6587
C 18.5608 36.2011 21.6322
C 19.7521 11.7689 -8.49636
C 19.2316 12.1081 -9.58646
C 4.43183 7.39129 7.67287
C 4.08884 7.52436 6.58611
C 10.2209 1.52454 0.952237
C 10.0207 0.638638 1.82606
C 18.2663 -34.3455 24.2621
C 17.9552 -33.8547 25.3135
C 22.8486 -8.93737 -12.8604
C 22.4632 -10.0193 -13.3709
C -34.0416 35.5037 -32.0567
C -32.8627 35.7707 -31.8766
C -37.5576 22.8243 -24.4819
C -38.0779 23.862 -24.8777
C 8.45805 -2.14986 3.98066
C 7.73194 -3.00518 4.19059
C 39.2697 -15.66 36.3898
C -39.8184 -16.4642 36.4222
H 28.9618 -37.8223 -8.54382
C 7.60886 -0.532846 -0.743167
C 8.03961 -1.58807 -0.971144
C -6.99024 -8.96284 1.81672
C -7.63926 -9.94776 1.93193
C -37.648 16.9495 18.6701
C -38.182 17.8986 19.2369
C 37.9115 8.19966 -15.7109
C 36.8893 8.7095 -16.0695
C 9.37128 11.1128 -2.94486
C 8.33516 11.7693 -2.98352
C 10.0952 3.44819 -3.66322
C 10.2301 3.146 -2.45373
C 17.0068 -13.1717 35.3055
C 17.5659 -12.1907 35.7822
C 23.2741 -7.88002 -12.3418
C 23.7058 -6.85611 -11.8902
C 2.07388 7.04708 1.90099
C 2.55861 7.19715 2.9232
C -14.8997 -16.7681 -9.91752
C -14.0668 -16.3469 -10.6912
H 28.9588 -37.1019 -8.95703
C -33.7986 -21.1646 18.6576
C -34.6099 -20.3907 18.1848
C 34.8033 -29.3222 10.0371
C 35.9633 -29.431 10.3421
C 10.4019 -7.12159 -20.4953
C 11.5719 -7.00871 -20.2801
C 32.5951 -28.588 9.03605
C 33.6215 -29.035 9.60326
C 25.9008 -3.09094 16.822
C 26.3714 -2.21026 16.134
C -5.58984 -33.7866 -20.2262
C -4.70845 -34.5569 -20.6486
C -12.549 -19.4751 22.6666
C -12.0223 -18.9089 23.5863
C 26.3466 -18.6389 -17.0679
C 25.9486 -18.3461 -15.9625
C 8.85016 -3.98769 -1.03952
C 8.45045 -2.83634 -1.01645
C -13.2908 -32.5328 -6.982
C -13.2941 -31.2841 -6.66483
H -2.35599 -9.62546 -23.4672
C -24.6284 -16.8245 -36.2986
C -24.4685 -15.7876 -36.9587
C 33.2696 24.3363 -0.0849517
C 32.5213 25.0531 0.627898
C -35.5677 -4.1282 28.7137
C -36.4577 -3.83731 27.8715
C -0.994351 29.683 -34.821
C -1.87887 30.1729 -34.0776
C 23.2202 -15.9925 -15.8417
C 22.97 -16.5731 -14.7671
C -26.1321 17.8542 -16.4106
C -25.5627 17.2493 -17.2946
C -27.4915 4.98669 7.91619
C -26.1949 4.81711 7.81854
C 37.2978 -18.213 24.6295
C 38.522 -18.2578 24.3476
C -4.14748 21.2334 31.4634
C -3.76204 21.9086 30.474
294
Atoms. Timestep: 60000
C 3.49576 6.62839 -1.75264
C 4.20756 6.36592 -0.724204
H 2.05214 1.7681 -7.79094
C -37.0696 -24.5648 17.6091
C -36.795 -25.441 18.376
C -11.3946 -1.63107 -2.48773
C -10.1187 -1.94772 -2.56107
C -6.5832 3.14613 -3.67484
C -6.80468 2.25354 -2.77857
C -4.09289 0.439588 5.74964
C -4.70917 -0.0565048 4.87825
C 2.16743 0.841967 -7.12129
C 1.32569 -0.314497 -7.09716
C 4.73375 5.89512 0.315576
C 5.42494 5.37409 1.40963
C -8.83935 -2.21374 -2.55121
C -7.59539 -2.42692 -2.45635
C -3.19704 7.12818 -10.9279
C -3.95942 7.12761 -11.7843
C -2.35263 6.99981 -9.82291
C -1.59169 6.93134 -8.94808
C 7.1854 4.85496 -5.22305
C 5.9568 4.58037 -5.50186
H -4.7517 7.06664 -12.6051
C -6.21055 -2.68721 -2.32286
C -5.92186 -3.03352 -1.00226
C -0.660201 6.95308 -7.94611
C 0.0706085 7.13243 -7.06549
C -2.47947 1.48887 7.29779
C -3.32635 1.00022 6.53212
C -2.39206 -6.20987 2.1052
C -1.90155 -5.92236 3.09121
C 2.43919 -6.51505 -0.175606
C 2.69617 -6.47245 -1.27396
C 6.39699 7.6793 -2.91508
C 6.39716 6.46008 -2.88416
C -3.65947 -1.19422 -5.14775
C -3.04688 -0.714463 -5.99364
C -4.46926 -1.76891 -4.1336
C -5.23589 -2.1177 -3.36548
C 1.601 7.33114 -4.97585
C 0.872795 7.30461 -6.0331
C -1.52355 2.0266 8.08777
C -0.652368 2.66141 7.26567
H -1.46233 1.93516 9.19779
C -1.7366 -5.88519 5.7652
C -1.16583 -5.58716 4.3922
C 4.51907 1.65463 6.35039
C 4.8957 1.67567 4.93889
C -6.34543 -1.0182 3.32722
C -5.56068 -0.565967 4.06737
C -5.14062 -4.50657 2.68717
C -4.3609 -3.78502 3.85989
C 5.22933 1.71346 3.86251
C 5.90114 1.72824 2.45443
C -5.40557 -3.89276 1.43544
C -5.65803 -3.41557 0.229939
C -32.7187 -12.4124 20.4008
C -32.0195 -12.1434 21.3621
C -7.84057 -2.9372 2.36005
C -7.27246 -1.57209 2.4292
C 2.8895 4.45437 4.14145
C 1.98971 4.12483 5.02255
C 3.70629 4.75561 3.25954
C 4.56223 5.04065 2.39616
H 5.16118 2.06008 7.1019
C -7.92068 -6.27522 -1.65487
C -9.16734 -5.99124 -1.54865
C 1.06864 3.80814 5.8986
C 0.224321 3.21294 6.60152
C -1.38797 -4.0372 -5.30545
C -0.628414 -3.23601 -5.98353
C -0.819042 -1.78425 6.34463
C -1.93101 -2.22824 6.1425
C -1.42767 1.1682 -6.73233
C -2.22313 -0.133464 -7.03368
C -3.93162 -3.3193 4.7842
C -3.23896 -2.77294 6.02722
C -2.93669 -6.45649 0.755078
C -3.39544 -6.50746 -0.281697
C 2.9196 6.90802 -2.8527
C 2.28612 7.13457 -3.9279
C 1.44708 -0.62075 6.71679
C 0.423667 -1.31307 6.52259
C -9.76494 -9.02224 1.45163
C -9.95748 -10.1479 1.44875
H -1.05156 -5.88806 6.62198
C 6.87832 1.37183 -0.0219102
C 6.26699 1.77485 1.40526
C 3.47599 0.857958 6.65799
C 2.52751 0.0458934 6.7689
C -8.75152 -5.28573 1.88803
C -8.22766 -4.04735 2.13984
C 9.35146 20.2255 -12.4641
C 10.3961 20.5754 -11.9078
C 32.4287 21.9722 6.61834
C 31.4797 22.3593 7.32837
C -4.20655 -6.52372 6.17154
C -2.98073 -6.21677 5.98578
C 10.3413 14.2472 -7.96192
C 9.63557 13.4636 -7.37547
C -5.36178 -2.50631 9.42537
C -5.9341 -2.28033 10.4729
C 13.7659 7.8243 -6.82406
C 12.8142 7.36684 -6.44565
C 0.034575 6.75955 -1.4268
C 0.462726 7.05325 -0.40592
H 6.46201 4.96658 1.37415
C -4.05863 -6.55693 -1.67539
C -3.37218 -5.91186 -2.739
C 3.63414 4.15238 -6.04611
C 4.81608 4.3757 -5.72584
C -2.74794 -5.30165 -3.63843
C -2.07297 -4.74471 -4.57761
C -6.50224 -7.48586 6.57473
C -5.37367 -6.99051 6.39585
C 2.40919 -4.51279 4.34449
C 3.30353 -3.83339 4.69699
C -6.71101 -6.45385 -1.66546
C -5.45992 -6.5294 -1.6492
C 1.17142 3.63483 -6.21249
C 2.34699 3.86908 -6.14318
C -9.45378 -7.62815 1.62058
C -9.1382 -6.51073 1.67374
C 0.757287 -1.29686 -6.89359
C 0.01624 -2.33676 -6.49473
C 25.5954 -16.1472 10.6239
C 25.9312 -15.6764 9.54348
H -10.1171 -11.2746 1.54273
C 1.41548 7.37253 3.40378
C 1.63247 7.48887 4.51168
C 8.37483 -0.32069 3.35889
C 8.97123 0.402641 2.59656
C -4.71301 -2.60522 8.2832
C -4.04621 -2.72499 7.20146
C -7.11459 0.663754 -0.771016
C -6.98393 1.44603 -1.79864
C -7.19644 -0.790144 1.2229
C -7.11033 -0.101191 0.24256
C -5.87513 5.10793 -5.23551
C -6.26583 4.09073 -4.45661
C -8.86056 4.60754 -1.27028
C -8.92122 4.23348 -2.40014
C 6.56506 1.93873 -1.18791
C 6.24481 2.62057 -2.33091
C -0.909145 2.13437 -6.56258
C -0.275702 3.49787 -6.17941
C 3.20831 0.726277 -6.21839
C 4.11031 0.339069 -5.31917
H 15.1765 -10.8925 32.776
C -1.05161 4.34801 -5.43381
C -1.69558 5.26291 -4.7014
C 15.5352 -10.6736 33.7598
C 15.9156 -10.3732 34.7803
C 6.40972 4.01829 -2.47025
C 6.45142 5.18329 -2.64691
C 4.97766 1.25329 -4.30556
C 5.54256 1.80902 -3.54893
C 3.8271 -2.38597 -5.10298
C 3.9966 -1.10904 -5.17776
C 3.68016 -3.60785 -4.90472
C 3.50074 -5.05897 -4.99837
C -12.7963 -5.50897 -0.420963
C -13.9537 -5.18825 -0.0601573
C 10.7693 6.19099 -5.29233
C 11.5948 6.73991 -5.80392
C -5.76382 -6.96092 2.91156
C -5.49542 -5.82821 2.84587
C -1.16775 5.87973 -3.43294
C -0.683364 6.28737 -2.47993
H -6.43212 5.73503 -5.98513
C 9.72976 5.29534 -4.54318
C 8.41454 5.11012 -4.92491
C 2.15687 -6.23866 1.25256
C 1.86518 -5.90117 2.28251
C 15.9589 8.82814 -7.96125
C 15.054 8.42021 -7.4423
C 1.44333 -5.42549 3.6874
C 0.134682 -5.45448 4.03086
C -13.8489 -0.956693 -2.41319
C -12.6113 -1.28202 -2.5019
C -11.6094 -5.741 -0.814166
C -10.3911 -5.81989 -1.26631
C -4.40731 22.7744 -4.01405
C -4.00665 22.0134 -4.88042
C -4.37817 5.16433 -5.06186
C -3.25776 5.30021 -4.94796
C -30.8579 37.9957 -30.5917
C -29.8855 37.8093 -29.858
C 4.4528 -3.13563 4.81515
C 5.55453 -2.47885 4.77741
H 16.8417 9.35966 -8.31633
C -15.092 -0.803833 -2.65517
C -16.301 -0.72234 -3.09126
C 3.1402 -6.16003 -2.65198
C 3.27882 -5.72339 -3.67768
C 3.51015 -6.21815 -7.3265
C 3.46116 -5.71113 -6.22313
C -2.60932 -26.2921 28.9486
C -2.65481 -25.1998 28.3029
C -18.3433 -6.1946 -25.8427
C -18.8135 -6.47524 -24.7226
C 8.04611 -5.19538 -10.0031