252
Atoms. Timestep: 0
C 2.16205 -2.95161 5.62676
C 2.05965 -4.04328 5.0424
H 1.7888 7.45774 3.73623
C 19.3477 4.43425 -2.94192
C 19.6116 3.43486 -3.57036
C -6.37909 6.55002 -8.09233
C -5.66715 6.04326 -7.18659
C -6.43599 2.78004 0.700047
C -6.19301 2.81379 -0.478247
C -0.435436 -1.7599 -6.55663
C -1.24108 -0.964697 -6.619
C 2.03844 6.77932 2.90494
C 1.4575 6.81621 1.51034
C 1.96111 -5.15016 4.46531
C 1.74291 -6.45929 3.99778
C -4.82143 5.65109 -6.22682
C -4.04203 5.2404 -5.48648
C 0.769077 7.46637 10.3054
C 0.71424 8.38664 10.9686
C 0.792205 6.1822 9.64654
C 0.923817 5.13373 9.20204
C 5.3148 6.5129 7.98247
C 4.23112 6.21465 7.34069
H 0.678747 9.34771 11.471
C -3.02793 4.5897 -4.67173
C -1.89961 3.70867 -5.11808
C 1.1165 3.88653 8.60268
C 1.10923 2.78892 8.00308
C 1.30473 -3.57697 -6.28908
C 0.52631 -2.74 -6.4778
C -0.0485004 2.77363 -9.11659
C 0.373307 1.54954 -9.395
C 34.0469 -36.4889 34.1155
C 32.9106 -37.102 33.9747
C 5.22889 1.88897 10.9851
C 4.94745 2.08984 9.79358
C -3.00279 6.05091 -1.03645
C -2.8891 6.55075 0.0655719
C -3.08039 5.50859 -2.26409
C -3.01365 5.04423 -3.32794
C 1.38064 0.48667 7.09083
C 1.22987 1.68802 7.52093
C 2.22486 -4.57235 -5.99229
C 2.12777 -5.14069 -4.69113
H 2.57821 -5.26792 -6.75807
C 1.43427 -0.864221 -9.91636
C 0.888604 0.368055 -9.65221
C 5.2927 -5.36873 0.806825
C 5.24101 -4.4067 1.79858
C -3.01859 0.869895 -6.53195
C -2.28057 0.00252211 -6.58616
C 0.834792 1.51375 -6.2516
C 1.96322 0.699901 -6.62176
C 5.15938 -3.47909 2.67162
C 5.08582 -2.46223 3.52422
C -0.0395749 2.19358 -5.93883
C -1.06659 3.0304 -5.49745
C -23.4195 -32.6401 11.8024
C -24.1514 -33.1415 12.6379
C -4.06395 2.94595 -7.52383
C -3.94635 2.0273 -6.46056
C 2.13849 -6.61454 0.142581
C 2.08368 -6.45928 -1.15384
C 2.10898 -6.59835 1.43216
C 1.92325 -6.49328 2.68173
H 5.58739 -6.41646 0.938667
C -1.02155 9.12785 -11.1971
C -1.13065 10.0786 -11.9774
C 2.00523 -6.16367 -2.3638
C 2.02787 -5.69295 -3.55899
C -0.0693337 7.0561 -3.2543
C 0.317618 6.95225 -1.95121
C 4.43088 -2.24157 -4.84378
C 4.19184 -1.70026 -5.83416
C -2.40904 6.26292 2.59172
C -2.75284 7.14861 1.37674
C 2.78856 -0.0304197 -6.89672
C 3.87718 -1.03908 -7.07947
C -0.322715 3.93591 -8.91135
C -0.541164 5.12774 -8.67182
C 1.87734 -1.80399 6.16105
C 1.59697 -0.672705 6.64279
C 4.91534 -3.44033 -2.60983
C 4.69505 -2.8192 -3.65408
C -3.74726 6.54591 -12.8679
C -3.54193 7.1382 -13.8115
H 2.49914 -1.09207 -9.96405
C 4.77668 -0.518843 4.96332
C 4.90423 -1.61331 4.29729
C 5.2611 -4.57644 -0.366779
C 5.14528 -4.09117 -1.54599
C -4.05223 4.37515 -9.594
C -4.13259 3.74845 -8.52167
C 3.41752 -4.64375 -9.05602
C 2.31774 -4.69598 -9.60154
C 2.97438 28.2454 -4.60837
C 1.88027 27.7962 -4.48649
C -0.337663 -2.67894 -9.88179
C 0.523632 -1.90147 -9.85148
C 8.41762 37.8703 34.5923
C 8.48947 38.1244 35.7636
C 6.80627 -0.485595 -9.61394
C 7.87183 -0.390018 -10.2639
C 11.7007 7.79706 11.5947
C 10.7784 7.45899 10.987
C -1.49553 -0.611261 6.76326
C -0.96702 -1.65563 7.16859
H 1.45513 -7.34839 4.6403
C -0.847502 6.4443 -8.32104
C -0.582728 6.87851 -6.8917
C 2.16907 5.64471 6.21748
C 3.18485 5.91786 6.76404
C -0.496053 6.96849 -5.75375
C -0.36022 7.04204 -4.38274
C -2.29383 -4.30243 -9.93478
C -1.33923 -3.52833 -9.94872
C -35.8028 -29.134 -16.6464
C -34.9447 -28.2867 -16.4123
C -0.954779 8.22989 -10.2184
C -0.850355 7.37266 -9.40986
C -0.131249 5.09739 5.26827
C 1.02638 5.32241 5.75726
C -3.99523 5.691 -11.7034
C -4.05445 5.02719 -10.7457
C 1.0126 6.84123 0.436525
C 0.597273 6.81756 -0.832403
C -36.1673 17.6005 13.8336
C -37.1203 16.899 13.5814
H -3.31058 7.71171 -14.7118
C 15.8246 2.00898 -24.401
C 15.1822 2.56454 -25.2895
C -36.7924 9.8459 18.7874
C -36.2794 8.65962 18.7868
C 5.78576 -0.632913 -8.84101
C 4.88039 -0.801668 -8.04044
C -5.64936 2.63535 -2.95111
C -5.97356 2.71741 -1.74748
C -4.64559 2.27976 -5.27667
C -5.13711 2.41023 -4.11605
C -6.77271 2.63114 3.21277
C -6.55331 2.68783 1.94257
C 16.1058 -38.355 16.6818
C 15.3103 -38.4428 17.5949
C 4.40744 0.564898 5.49584
C 4.0178 1.78705 6.07333
C -1.9931 5.7187 3.46547
C -1.46495 4.91229 4.70623
C 3.01221 5.83631 3.02193
C 4.00713 4.85003 3.12375
H 10.8587 -8.66641 -11.9458
C -2.338 3.86478 5.02898
C -3.10742 2.78497 5.36597
C 11.713 -8.14371 -11.549
C 12.5766 -7.37829 -11.0193
C 4.29555 1.96911 7.40637
C 4.52316 2.05095 8.54472
C 4.04638 3.72615 4.23678
C 4.0317 2.97944 5.02573
C 6.14958 4.4035 1.44663
C 5.11032 4.67979 2.15718
C 7.18347 4.17889 0.735228
C 8.16034 3.95897 -0.0523218
C 35.8404 -39.0602 4.73031
C 35.0278 -38.7544 5.57667
C 8.51643 7.16631 9.83287
C 9.65284 7.29079 10.387
C 32.026 18.0637 -21.648
C 31.0889 17.8103 -20.9034
C -2.43682 1.52807 5.89258
C -2.03536 0.548396 6.32505
H -7.76513 2.37991 3.64698
C 7.46908 6.93126 9.22032
C 6.36626 6.73645 8.64743
C 35.0374 -35.6782 34.1907
C 35.981 -34.8648 34.3464
C 13.7641 8.45645 12.9906
C 12.8554 8.12561 12.3823
C -36.6103 -30.1216 -16.9401
C -37.4518 -30.9943 -17.0331
C -7.49473 7.47258 -10.195
C -6.95937 7.09963 -9.10892
C 36.736 -39.4722 3.81116
C 37.5531 -39.6963 2.97283
C 18.4593 35.2874 -12.8579
C 18.1234 35.0862 -14.0115
C -5.44232 2.6279 4.07794
C -4.48833 2.6538 4.61529
C 24.4396 35.7925 21.3592
C 23.739 34.8723 21.0421
C -34.0493 -27.3614 -16.2147
C -33.2212 -26.5123 -16.0027
H 14.6109 8.85271 13.5809
C -7.96207 7.98678 -11.3024
C -8.42964 8.39182 -12.3508
C -24.3462 25.7589 -23.0796
C -24.1926 26.81 -23.6567
C 1.36917 22.4567 5.38138
C 0.375071 21.8 5.68654
C -24.5865 12.1854 20.1023
C -24.1498 12.8925 20.9385
C -8.28822 8.80664 -39.7015
C -7.886 9.69266 -38.9507
C 8.72417 -20.7643 1.72674
C 7.49717 -20.8435 1.76243
C 17.3586 27.7504 -33.4069
C 16.2042 27.4033 -33.4082
C 5.94527 -39.301 23.6798
C 6.13473 -38.7288 22.6259
C -2.5718 8.48702 1.53269
C -2.41519 9.68184 1.73338
C -8.74548 6.91732 38.5951
C -8.62096 7.8535 39.4271
H 12.3774 -6.92968 -37.1917
C -4.65747 9.69437 -9.02414
C -3.97573 8.97454 -9.70347
C 20.1186 36.4055 32.5196
C 19.4589 36.3545 33.5068
C 13.4226 -6.57174 -37.2301
C 14.5128 -6.13794 -37.5815
C -35.5416 6.24413 18.787
C -35.8463 7.43883 18.7964
C 36.9392 -38.5559 -16.0638
C 35.9041 -38.9753 -16.5187
C -14.633 28.4005 -6.39652
C -13.7065 27.8341 -6.93381
C -10.1554 23.3608 -24.5748
C -9.83155 24.1191 -25.4577
C 14.0835 -34.3153 -28.4875
C 14.2856 -34.7039 -27.3248
C -37.2918 10.9913 18.5407
C -37.7267 12.1648 18.5627
C -13.0163 -26.1279 -11.334
C -13.4151 -25.2077 -12.011
H 0.329302 24.7474 2.52093
C -24.8702 34.2705 -23.2967
C -24.9176 35.5516 -23.5778
C 24.7247 16.2844 0.571366
C 25.9079 16.7639 0.590387
C 37.3164 11.9907 25.047
C 37.8142 12.4406 26.1516
C -8.449 4.70228 2.91418
C -9.64804 4.45915 3.18888
C 37.1086 -24.8274 -35.6517
C 37.267 -25.7558 -36.4235
C -23.4214 24.7363 -19.1033
C -23.4953 25.7307 -19.7905
C -22.6286 8.13707 -8.91513
C -23.8632 8.19908 -9.28417
C -37.2539 8.42558 15.5399
C -36.2727 7.86382 15.0569
C -19.6963 36.835 32.6358
C -19.7305 36.2813 33.7438
252
Atoms. Timestep: 20000
C 1.83272 -3.10779 5.76052
C 2.06351 -4.22341 5.27503
H 0.877546 6.83753 3.50006
C 28.0225 2.87936 -9.26158
C 28.2259 1.78941 -9.73686
C -7.36002 5.56097 -8.26671
C -6.5508 5.30295 -7.47619
C -6.97147 1.91133 0.832233
C -6.70071 1.92804 -0.428377
C -1.76882 -3.30065 -6.19607
C -2.54763 -2.33908 -6.32135
C 1.54085 6.47123 2.75734
C 1.25187 6.44318 1.30122
C 2.30745 -5.36055 4.7597
C 2.58366 -6.58881 4.1596
C -5.51548 5.11263 -6.65067
C -4.67523 4.81732 -5.91631
C -1.67421 7.25442 9.23988
C -2.18791 8.18653 9.48687
C -0.986148 5.89455 8.85775
C -0.580339 4.84686 8.73141
C 4.86065 6.00651 7.65682
C 3.75665 5.90907 7.15632
H -2.57787 9.23252 9.64091
C -3.68479 4.29609 -5.08164
C -2.93517 3.03215 -5.59698
C -0.0728068 3.52303 8.44792
C 0.378783 2.45913 8.24829
C -0.228636 -5.34482 -6.09072
C -1.00247 -4.32856 -6.10684
C -2.26805 2.53217 -9.9958
C -2.33757 1.45692 -10.7012
C -39.6458 -34.8617 38.7272
C -39.5936 -34.9962 39.9805
C 4.2641 2.92419 11.1811
C 4.21442 2.81824 9.98778
C -3.07406 6.05212 -1.61174
C -2.93784 6.64967 -0.580769
C -3.22541 5.45531 -2.76914
C -3.38737 4.79221 -3.82117
C 1.14153 0.327451 7.33955
C 0.805488 1.32748 7.84643
C 0.567266 -6.44063 -5.84024
C 0.873902 -6.5631 -4.5296
H 1.21546 -6.825 -6.64681
C -2.70363 -0.498347 -12.3324
C -2.48999 0.529112 -11.3795
C 5.59725 -5.7589 1.86658
C 5.44947 -4.71391 2.73648
C -4.04653 -0.358341 -6.45888
C -3.34743 -1.28317 -6.35175
C -0.493282 0.285319 -6.20668
C 0.54032 -0.85455 -6.08452
C 5.27336 -3.72931 3.54165
C 5.00671 -2.64937 4.14597
C -1.24672 1.09551 -6.24124
C -2.32455 2.18701 -5.96379
C -27.1762 -22.0762 9.37909
C -28.1669 -21.3782 9.16996
C -5.18966 1.45123 -7.75555
C -4.92669 0.871077 -6.49245
C 1.6349 -6.62908 0.374574
C 1.47169 -6.67668 -0.820519
C 1.91131 -6.60437 1.61696
C 2.1958 -6.59602 2.78246
H 6.1078 -6.72322 2.15811
C -5.0254 8.47868 -9.72896
C -5.87582 9.18903 -10.1952
C 1.35613 -6.7989 -2.04024
C 1.16898 -6.73172 -3.33367
C -0.0395226 6.578 -3.46138
C 0.300312 6.53345 -2.28705
C 3.27791 -3.79885 -3.81157
C 2.78868 -3.45064 -4.93435
C -2.37196 6.43354 2.02655
C -2.7264 7.20445 0.694231
C 1.21329 -1.72761 -5.99199
C 2.21382 -2.93958 -6.06723
C -2.17063 3.62481 -9.30887
C -2.21318 4.75781 -8.75631
C 1.67541 -1.94065 6.24113
C 1.39635 -0.790517 6.7611
C 4.24346 -4.71967 -1.64209
C 3.77696 -4.25173 -2.70823
C -7.14374 3.55889 -13.488
C -7.60195 3.88184 -14.4622
H -2.27436 -0.432092 -13.3833
C 4.46217 -0.271033 5.03205
C 4.73762 -1.46382 4.64789
C 5.14802 -5.46472 0.6064
C 4.70587 -5.08966 -0.499187
C -5.74222 2.23021 -10.0075
C -5.41012 1.923 -8.91235
C -1.45202 -5.56911 -11.358
C -0.707545 -4.90436 -10.6829
C 2.34866 29.0748 -0.639665
C 2.27342 27.8639 -0.641432
C -4.31992 -2.42537 -11.6122
C -3.5543 -1.50735 -11.9712
C 6.33505 32.4185 33.7869
C 6.24845 33.1834 32.8702
C 3.21315 -4.40023 -9.46611
C 3.44702 -4.84674 -10.5957
C 11.9927 6.44076 10.0782
C 10.8873 6.34068 9.77992
C -2.03627 -0.160913 6.96567
C -1.6811 -1.09429 7.66568
H 2.71482 -7.47904 4.77256
C -2.25975 6.05964 -8.24947
C -1.5729 6.1846 -6.93535
C 1.50007 5.40641 6.09544
C 2.61659 5.54966 6.69574
C -1.01358 6.32342 -5.83608
C -0.54575 6.50561 -4.68246
C -6.07097 -4.16184 -11.0684
C -5.20726 -3.29429 -11.2864
C 39.7493 -30.5212 -17.315
C -39.7513 -29.7194 -16.4819
C -4.05412 7.76638 -9.14341
C -3.24777 7.0458 -8.73335
C -0.697278 5.26264 4.96588
C 0.396869 5.33486 5.54372
C -6.59738 3.11535 -12.1806
C -6.23972 2.75376 -11.1465
C 1.00649 6.43886 0.183196
C 0.700997 6.45871 -1.14807
C -33.3244 23.244 7.16221
C -34.5149 23.2137 7.34805
H -8.09889 4.25271 -15.3675
C 11.5585 2.04535 -26.6588
C 12.539 1.48639 -26.1184
C -39.7297 11.3587 23.577
C 39.3249 11.1599 22.8373
C 2.8977 -3.98713 -8.31178
C 2.58272 -3.5782 -7.21919
C -6.23404 1.66779 -2.91139
C -6.44589 1.79641 -1.66017
C -5.58296 1.27251 -5.25709
C -5.97664 1.49887 -4.18179
C -7.30052 2.37129 3.29338
C -7.10364 2.17204 2.04018
C 20.211 -37.2222 19.306
C 20.4265 -36.9709 18.1583
C 4.15114 0.815868 5.53435
C 3.8427 2.02508 6.16759
C -2.17129 5.94567 2.98576
C -1.93874 5.20282 4.39164
C 2.63125 5.71566 3.00774
C 3.7203 4.99798 3.11569
H 10.1513 -4.24704 -9.66012
C -2.70576 4.0566 4.65649
C -3.47595 2.92202 4.87893
C 11.009 -4.09003 -10.2905
C 12.152 -4.0879 -10.8477
C 3.97915 2.37986 7.51251
C 4.12927 2.65912 8.64856
C 3.65684 3.95762 4.34157
C 3.64274 3.20658 5.1274
C 5.17821 4.83082 0.96568
C 4.50477 4.81184 1.91409
C 5.96549 5.0385 -0.0634924
C 6.74764 5.40284 -0.985967
C 34.3805 35.2556 5.01415
C 33.697 34.2136 5.35307
C 8.4759 6.10954 8.97426
C 9.63662 6.14398 9.37012
C 18.6569 25.4039 -30.8309
C 18.4981 25.7671 -29.6679
C -2.83086 1.76736 5.63307
C -2.42241 0.862763 6.24374
H -8.2904 2.1038 3.73032
C 7.2657 5.99339 8.53042
C 6.04228 6.07358 8.14102
C -39.6051 -34.3827 37.5237
C -39.4427 -33.942 36.4158
C 14.3275 6.80593 11.127
C 13.3448 6.68234 10.5884
C 39.1105 -31.3435 -18.1241
C 38.5881 -32.079 -18.9426
C -8.88981 5.8766 -10.2867
C -8.16262 5.7681 -9.27945
C 35.2003 36.1782 4.5613
C 35.7296 37.2084 4.12602
C 17.4035 31.8884 -15.9749
C 16.4261 32.5401 -15.7144
C -5.90108 2.55293 3.8773
C -4.92114 2.78572 4.32317
C 18.5888 33.8486 26.5127
C 18.9705 33.4469 25.4538
C -39.1511 -28.9473 -15.5874
C -38.587 -28.2533 -14.6648
H 15.3277 6.89537 11.5712
C -9.69789 5.90485 -11.2989
C -10.4118 5.97797 -12.2772
C -24.9707 22.1269 -27.9046
C -24.6965 23.3016 -27.8396
C 13.1352 18.3818 5.71513
C 13.862 18.1456 4.80294
C -24.5198 2.00305 20.1256
C -24.5593 1.4882 21.3073
C 1.19129 0.341623 -36.6406
C 0.791484 -0.859293 -36.5609
C 14.6421 -24.4161 4.2382
C 14.0554 -25.2636 3.55295
C 11.1622 20.9004 -26.8011
C 11.6381 20.6701 -27.8917
C 11.3831 -34.2802 26.7758
C 11.782 -35.1651 26.0093
C -3.21952 8.5201 0.838865
C -3.66822 9.64446 1.04393
C 1.98672 2.72295 -36.7892
C 1.57047 1.55646 -36.692
H 11.7749 -2.89055 -36.9517
C -6.55375 11.4219 -14.6413
C -6.99316 10.8657 -15.6127
C 18.0187 37.5999 25.8535
C 18.0626 37.0891 26.9893
C 12.1614 -3.56304 -36.1637
C 12.4995 -4.55921 -35.4487
C 37.4315 10.6586 21.2219
C 38.3969 10.9329 21.9579
C 32.4235 39.2535 -22.7347
C 32.0563 39.2493 -21.5841
C -19.0102 27.6454 5.17564
C -18.0971 27.8108 5.93673
C -0.755395 28.8189 -25.9461
C -0.199522 29.8956 -25.8406
C 8.47851 37.6753 -37.1124
C 7.46737 37.386 -37.6596
C -38.832 11.6191 24.4044
C -38.1892 11.9723 25.392
C -17.8325 -16.4133 -15.1049
C -16.7911 -16.3071 -15.7156
H -6.43929 22.6692 0.290182
C -16.4821 38.1798 -29.4351
C -16.5191 39.3971 -29.8306
C 21.0192 13.2197 8.60837
C 22.0386 13.8127 8.29392
C 28.7279 7.51484 25.5194
C 29.2271 7.94699 26.6241
C -7.08643 5.17366 -1.27227
C -6.35572 5.70237 -2.10477
C 38.4139 -27.1555 -29.8189
C 39.0643 -28.1828 -29.8464
C -27.7069 25.3351 -20.7705
C -27.7831 24.2658 -21.3095
C -26.985 7.21905 -11.5043
C -27.635 7.58491 -12.5604
C 37.228 5.68495 18.854
C 37.0121 4.85487 19.7432
C -28.0567 28.8882 35.955
C -28.8516 29.5217 36.6549
252
Atoms. Timestep: 40000
C 2.74381 -0.995224 6.30145
C 3.28905 -2.12319 5.90906
H 2.68293 8.35746 2.89247
C 36.7272 1.30791 -15.6139
C 36.8576 0.151755 -15.9049
C -8.10023 3.57914 -7.8549
C -7.09647 3.55045 -7.07474
C -6.33648 3.30062 1.70702
C -6.31222 2.73352 0.59538
C -2.10559 -4.20021 -4.55466
C -2.92307 -3.38329 -4.70809
C 2.52695 7.47096 2.21778
C 1.73259 7.46814 1.05332
C 3.9162 -3.17649 5.56362
C 4.61264 -4.33279 5.30826
C -6.16739 3.67812 -6.18324
C -5.23135 3.59608 -5.48004
C -2.93596 8.55136 8.86482
C -3.56871 9.42067 9.23727
C -2.1389 7.41083 8.52776
C -1.48803 6.48834 8.31666
C 5.94244 5.94164 7.53679
C 4.8703 6.0551 6.95687
H -4.26371 10.2744 9.44811
C -4.09091 3.31411 -4.67298
C -3.17398 2.29558 -5.26726
C -0.701732 5.40802 8.17958
C -0.0443079 4.46688 8.00166
C -0.258484 -5.94845 -4.19295
C -1.16648 -5.08827 -4.38922
C -3.0816 1.65244 -9.80137
C -3.40072 0.543942 -10.3369
C -33.1406 -32.6287 -37.6914
C -32.199 -32.0476 -37.1339
C 5.59463 2.96191 10.2299
C 5.33663 2.69819 9.07315
C -2.87476 5.37676 -1.66858
C -2.43399 5.99944 -0.590675
C -3.31662 4.77526 -2.67931
C -3.65304 4.10349 -3.57479
C 1.20092 2.29082 7.50637
C 0.635989 3.36501 7.76984
C 0.707945 -6.94456 -3.87995
C 1.19962 -6.72913 -2.60679
H 1.07136 -7.70266 -4.55442
C -4.2527 -1.898 -10.9796
C -3.76997 -0.625583 -10.7341
C 6.54149 -4.91345 -0.032803
C 6.21093 -3.80737 0.751869
C -4.62536 -1.51788 -5.00688
C -3.8351 -2.34929 -4.86104
C -1.12156 -0.500509 -6.52824
C -0.37977 -1.7259 -6.87603
C 5.97795 -2.85666 1.594
C 5.7218 -1.95993 2.41945
C -1.6719 0.447974 -6.21246
C -2.47563 1.50673 -5.70711
C -31.7994 -10.8692 6.7577
C -31.3371 -10.1971 5.88394
C -5.88848 -0.0161441 -6.47584
C -5.4537 -0.348057 -5.17338
C 3.14381 -5.42155 1.92438
C 2.56496 -5.7056 0.805208
C 3.7682 -5.20108 3.06317
C 4.20505 -4.84132 4.08113
H 7.41245 -5.58972 0.0970158
C -2.95407 8.51106 -9.74184
C -3.08835 9.49456 -10.4278
C 2.13578 -6.17836 -0.321498
C 1.71624 -6.54747 -1.46112
C 0.0129082 5.97381 -3.43684
C 0.446105 6.47126 -2.28642
C 2.70546 -4.35729 -5.11328
C 2.05652 -4.10882 -6.02477
C -1.55835 6.30509 1.78109
C -2.02959 6.81162 0.367087
C 0.246565 -2.66725 -7.01722
C 1.21246 -3.77971 -7.17166
C -2.83905 2.82917 -9.23478
C -2.51179 3.80912 -8.61366
C 2.22516 0.12437 6.64662
C 1.69665 1.18847 7.10352
C 4.20326 -4.72893 -3.12841
C 3.50145 -4.60513 -4.03208
C -8.05046 1.5858 -12.3211
C -8.38952 1.91705 -13.3548
H -3.85311 -2.82914 -10.4463
C 5.39429 0.165849 3.80015
C 5.59624 -0.930439 3.14239
C 5.75561 -4.89923 -1.12469
C 4.99396 -4.80149 -2.10262
C -6.85947 0.548105 -8.7545
C -6.35439 0.312231 -7.58923
C -2.71435 -9.07651 -8.25476
C -3.78773 -9.39045 -7.71503
C 1.67378 29.2527 3.33996
C 2.71457 28.5851 3.2146
C -6.33293 -1.6119 -12.6382
C -5.36267 -1.7389 -11.8456
C 4.9381 27.334 30.8388
C 4.22186 27.3776 31.8051
C 1.36411 -5.66203 -10.6967
C 1.34612 -6.07573 -11.8373
C 12.085 4.9087 11.7571
C 11.2071 5.14771 11.04
C -1.47317 0.476851 7.58903
C -1.04699 -0.43059 8.31858
H 5.48797 -4.66172 5.90708
C -2.21679 4.98233 -7.94633
C -1.51065 5.02919 -6.66619
C 2.7985 5.9704 5.70337
C 3.81971 6.01702 6.28757
C -0.968222 5.12467 -5.5805
C -0.462178 5.52213 -4.5203
C -8.37473 -1.13786 -14.1122
C -7.36296 -1.36389 -13.3007
C 35.2035 -31.6937 -17.7652
C 35.3404 -31.3642 -16.55
C -2.66339 7.3026 -9.14461
C -2.51557 6.31831 -8.57462
C 0.508673 5.5462 4.65825
C 1.6283 5.76585 5.1818
C -7.5784 1.20167 -11.0096
C -7.17003 0.886513 -9.96091
C 1.2123 7.29571 0.0164854
C 0.848052 6.88392 -1.14063
C -30.7808 28.8786 0.510993
C -31.5955 29.5695 1.05972
H -8.74251 2.21694 -14.3564
C 9.15646 1.00541 -27.942
C 7.99801 1.44769 -27.9766
C 36.0863 11.4977 26.9008
C 35.5531 12.53 26.4539
C 1.31833 -5.14927 -9.51794
C 1.24895 -4.45113 -8.42373
C -5.87113 1.71489 -1.70991
C -6.08781 2.22426 -0.491987
C -5.58192 0.514323 -3.97284
C -5.67403 1.15399 -2.89063
C -6.30745 4.62115 3.92378
C -6.36269 4.00035 2.77195
C 25.2944 -29.5969 7.13028
C 25.6314 -29.7466 8.27515
C 5.19432 1.26528 4.43661
C 4.97708 2.44552 5.16902
C -1.26505 5.88148 2.75256
C -0.797454 5.21093 4.10983
C 3.37067 6.40399 2.22165
C 4.19708 5.30203 2.10643
H 10.7537 0.634456 -8.41378
C -1.67755 4.44604 4.84134
C -2.56053 3.76583 5.55188
C 10.8183 -0.100592 -9.26123
C 10.7979 -0.749372 -10.3249
C 5.0657 2.56501 6.57323
C 5.18275 2.61593 7.72775
C 4.44768 4.3591 3.39884
C 4.67783 3.63257 4.21267
C 4.77767 4.28637 -0.27621
C 4.50285 4.71645 0.779079
C 5.08694 3.68219 -1.48101
C 5.41419 3.13725 -2.53846
C 33.3539 30.1158 4.93949
C 33.6949 29.0381 4.43759
C 9.10966 5.47257 9.66042
C 10.1099 5.3036 10.2425
C 5.18259 32.9077 -39.5744
C 5.92847 33.5976 -38.9201
C -2.19084 2.47086 6.2089
C -1.83566 1.52978 6.75762
H -6.94487 5.44936 4.20723
C 8.08437 5.5665 8.8344
C 7.02181 5.68078 8.18184
C -34.1036 -33.3776 -38.1262
C -35.0422 -34.1611 -38.3376
C 14.0582 4.30366 13.2821
C 13.1596 4.56028 12.6314
C 35.1822 -32.194 -19.0343
C 35.1736 -32.4892 -20.2106
C -10.1727 3.81393 -9.08778
C -9.1022 3.66545 -8.47513
C 33.1076 31.2374 5.52537
C 32.684 32.248 6.12104
C 15.2778 29.196 -18.8033
C 15.7913 29.2712 -17.7191
C -5.03462 4.31572 4.60204
C -4.02088 4.07548 5.06394
C 13.7059 29.9571 31.0849
C 14.8329 29.5899 30.8066
C 35.5241 -31.0413 -15.3104
C 35.5296 -30.5347 -14.1603
H 14.9539 4.13579 13.9369
C -11.2673 3.79709 -9.76402
C -12.284 3.93472 -10.4029
C -25.8396 18.8196 -31.6964
C -25.4624 19.9345 -31.4698
C 26.2245 13.8566 4.70201
C 26.1351 14.8477 5.40449
C -24.4929 -8.53172 20.7969
C -24.93 -9.62279 21.0291
C 8.38187 -6.3254 -32.2592
C 7.21574 -6.23822 -32.6023
C 20.326 -28.5136 6.42553
C 20.9775 -29.2992 5.74158
C 5.60351 13.7306 -21.6329
C 6.41771 14.224 -20.9056
C 17.1317 -29.9065 29.3152
C 17.1491 -30.9309 29.9671
C -2.45258 8.18859 0.204718
C -2.73044 9.34018 0.10795
C 10.8335 -6.58701 -31.5367
C 9.62479 -6.46197 -31.8762
H 15.1834 -3.20307 -37.0498
C -3.93167 11.6923 -18.1222
C -3.97682 12.4963 -19.0199
C 15.4651 34.1678 32.0832
C 14.3446 34.6273 32.3992
C 15.0671 -2.24527 -36.5404
C 14.66 -1.09173 -36.2121
C 34.1755 14.5381 25.924
C 34.9189 13.5276 26.1213
C 27.4916 37.0525 -28.157
C 28.6017 37.4735 -27.9302
C -22.6774 27.0172 17.378
C -23.2217 27.6584 18.244
C 8.89957 34.7399 -27.3058
C 9.22964 35.2399 -26.2398
C 0.893127 29.466 33.6305
C 1.68378 30.1014 32.8905
C 36.6498 10.389 27.3675
C 37.3786 9.39619 27.7567
C -21.6967 -6.58115 -19.445
C -21.1414 -7.47311 -18.8714
H -13.4114 20.9994 -3.03232
C -8.07249 -37.859 -35.5994
C -8.09609 -36.7883 -36.0914
C 17.2884 10.1631 16.64
C 18.1431 10.8674 15.9953
C 20.1166 3.12408 26.0062
C 20.6172 3.34375 27.0835
C -8.26073 6.13393 -3.1164
C -8.08791 4.90089 -2.92636
C 39.8814 -29.7561 -23.9349
C -39.3252 -30.3734 -23.2434
C -31.8562 23.8782 -23.986
C -31.7273 24.3687 -22.8994
C -31.4435 6.40957 -14.403
C -31.3268 6.85798 -15.5431
C 32.293 6.30715 26.4209
C 31.1395 6.68135 26.2696
C -36.9959 21.3673 39.7642
C -37.4417 22.2958 39.0931
252
Atoms. Timestep: 60000
C 2.05081 -2.81582 5.77247
C 2.48331 -3.96064 5.39297
H 1.41687 6.64471 3.08307
C -34.5426 -0.25864 -21.9779
C -34.495 -1.46399 -22.0664
C -8.38233 3.84032 -7.48802
C -7.43073 3.963 -6.82932
C -6.37964 3.39127 0.917897
C -6.19059 2.92225 -0.211177
C -2.17382 -4.70058 -5.65934
C -2.87819 -3.64213 -5.68325
C 2.03195 6.42149 2.18151
C 1.50315 6.47636 0.83584
C 2.89114 -4.99658 4.95301
C 3.39118 -6.19385 4.39735
C -6.35247 3.92431 -6.06614
C -5.35971 3.91186 -5.34406
C -1.23068 7.6245 8.65323
C -1.66562 8.64519 8.97326
C -0.678465 6.46806 8.24334
C -0.230008 5.41303 8.01773
C 6.41163 6.30675 6.83896
C 5.217 6.04513 6.45242
H -2.17888 9.59806 9.29556
C -4.08088 3.73608 -4.67579
C -3.09218 2.74968 -5.24712
C 0.270807 4.25941 7.62417
C 0.609673 3.07286 7.3907
C -0.749302 -6.86949 -5.45776
C -1.50178 -5.76818 -5.58962
C -3.36953 1.53789 -9.13136
C -3.33742 0.32647 -9.4795
C -27.4692 -31.2607 -34.316
C -27.3734 -30.6913 -35.4293
C 3.98161 3.73396 10.5091
C 4.05952 3.43328 9.32236
C -2.99066 5.78222 -1.53483
C -2.58491 6.30624 -0.526284
C -3.41151 5.11719 -2.60118
C -3.6664 4.41465 -3.49673
C 1.31423 0.676492 6.78217
C 1.01865 1.86649 7.03858
C 0.0957071 -7.90756 -5.1765
C 0.555789 -7.67706 -3.86629
H 0.300358 -8.69678 -5.85716
C -3.32065 -2.16841 -10.2159
C -3.35019 -0.858813 -9.8664
C 5.69575 -5.59695 1.50761
C 5.41319 -4.59416 2.41486
C -4.46519 -1.61759 -5.723
C -3.60977 -2.5861 -5.71592
C -0.714771 0.108803 -6.28072
C 0.186328 -1.02529 -6.33029
C 5.09586 -3.57951 3.18776
C 4.84742 -2.46969 3.86996
C -1.43873 0.906037 -5.93354
C -2.35259 1.95245 -5.57982
C -36.0214 0.934224 3.37553
C -34.9216 0.425343 3.3488
C -6.10118 -0.415588 -7.07246
C -5.44345 -0.612284 -5.76425
C 2.0328 -6.82051 0.884424
C 1.73513 -7.0676 -0.371029
C 2.4079 -6.58866 1.99695
C 2.8378 -6.33977 3.13789
H 6.08603 -6.58603 1.83911
C -2.7884 8.0257 -11.0622
C -2.85755 8.84975 -11.9071
C 1.3871 -7.2815 -1.5898
C 0.986473 -7.49575 -2.78181
C -0.176239 6.44964 -3.82701
C 0.263762 6.73004 -2.67031
C 3.02384 -3.97138 -4.07346
C 2.48652 -3.59131 -5.04723
C -1.64614 6.24992 1.91639
C -2.20366 7.01566 0.630472
C 0.860932 -1.93686 -6.26423
C 1.81244 -3.17491 -6.19021
C -3.31558 2.76647 -8.8149
C -2.99127 3.92271 -8.60603
C 1.75328 -1.71448 6.0576
C 1.53914 -0.509628 6.35266
C 4.20631 -4.60312 -1.96501
C 3.62821 -4.25113 -3.00327
C -9.8195 0.819736 -12.0867
C -10.677 1.05694 -12.7977
H -2.6472 -2.67343 -11.0219
C 4.55606 -0.315997 5.05236
C 4.68735 -1.44729 4.538
C 5.18044 -5.27264 0.283317
C 4.69473 -4.95972 -0.869655
C -7.35602 0.0321546 -9.17301
C -6.73065 -0.167398 -8.08612
C -1.56083 -10.0222 0.789886
C -1.1751 -10.4667 -0.305608
C 1.53156 29.0886 7.26197
C 2.62268 29.6498 7.14139
C -4.95151 -3.60403 -8.75208
C -4.16685 -2.87832 -9.45402
C -0.169795 22.752 28.4096
C 0.335029 22.0243 27.5736
C 1.84208 -5.96797 -8.92699
C 2.10278 -6.85612 -9.77977
C 13.8006 6.87512 8.12087
C 12.654 6.76557 8.00179
C -1.91269 0.1772 7.29344
C -1.70783 -0.718387 8.08147
H 4.20412 -6.76723 4.78827
C -2.78515 5.24109 -8.22404
C -1.97536 5.54463 -6.99867
C 2.91415 5.63125 5.67386
C 4.05846 5.86053 6.00058
C -1.36356 5.79231 -6.06571
C -0.694385 6.13865 -4.9231
C -6.72582 -5.0369 -7.62069
C -5.7965 -4.33929 -8.10424
C 31.0545 -32.8514 -18.1061
C 30.5448 -33.0232 -17.0644
C -2.86183 7.21495 -9.94214
C -2.81823 6.39537 -9.13293
C 0.575993 5.2853 4.79485
C 1.65803 5.42691 5.14554
C -8.78702 0.548141 -11.1545
C -8.06332 0.292553 -10.2871
C 1.05294 6.61168 -0.343178
C 0.688928 6.74232 -1.56033
C -28.4721 34.7076 -6.00086
C -28.4319 35.7509 -5.38967
H -11.4737 1.29523 -13.4796
C 4.48837 0.808432 -29.4581
C 5.68528 0.456186 -29.7188
C 31.1407 11.2861 29.4399
C 31.4147 12.13 30.4247
C 1.72355 -5.01632 -8.0108
C 1.76165 -4.2081 -7.18136
C -5.83872 1.54054 -2.35053
C -6.01802 2.34575 -1.36525
C -5.66601 0.227106 -4.54839
C -5.73757 0.870905 -3.41424
C -6.36715 4.11905 3.3805
C -6.32238 3.7313 2.12565
C 27.1793 -23.1177 -2.60063
C 26.3883 -23.1304 -3.53306
C 4.49384 0.825686 5.40717
C 4.54768 2.18133 5.67931
C -1.27394 5.79809 2.8477
C -0.812905 5.12915 4.23465
C 3.0621 5.51471 2.25355
C 4.08234 4.67525 2.28948
H 11.5978 3.94496 -8.65333
C -1.67308 4.27168 4.70312
C -2.66533 3.38118 5.15054
C 10.5493 3.5427 -8.82436
C 9.48028 3.08888 -9.05366
C 4.35015 2.65928 6.98547
C 4.21474 3.09402 8.11487
C 4.252 3.78961 3.52641
C 4.42411 3.1787 4.45121
C 5.75129 4.17247 0.0638732
C 4.9903 4.40395 1.04153
C 6.33579 3.73016 -0.991837
C 6.97182 3.43916 -1.97273
C 32.1695 25.768 5.34929
C 33.0342 25.8336 4.47369
C 10.1101 6.70598 7.58685
C 11.3159 6.61754 7.76412
C -8.0118 -39.2987 31.9229
C -6.96597 -38.8342 31.5557
C -2.36547 2.22817 5.93829
C -2.20482 1.25745 6.52956
H -7.32963 4.52383 3.81913
C 8.87786 6.58309 7.33962
C 7.62129 6.427 7.17366
C -27.7726 -31.8279 -33.2589
C -28.0284 -32.4575 -32.1942
C 16.3532 6.69125 8.32264
C 15.2202 6.87541 8.20309
C 31.5897 -32.7116 -19.2714
C 32.0356 -32.3961 -20.3929
C -10.2998 3.5323 -9.00458
C -9.37053 3.65893 -8.28003
C 31.1934 25.4416 6.18896
C 30.2662 25.3459 6.98382
C 13.7211 26.5919 -20.4011
C 14.5828 25.904 -20.9625
C -5.13949 3.80452 4.11271
C -4.12592 3.60754 4.57782
C 9.4564 27.1786 37.6675
C 10.3456 26.3827 37.592
C 29.9689 -33.1478 -15.887
C 29.551 -33.3295 -14.7238
H 17.4541 6.58214 8.36961
C -11.3737 3.33318 -9.72902
C -12.2821 3.05076 -10.4792
C -26.7141 15.5194 -35.4997
C -26.2287 16.5513 -35.0952
C 39.1963 10.9532 4.85927
C 38.5777 9.89559 4.86151
C -24.6361 -19.4979 21.5287
C -25.131 -20.3387 20.691
C 11.6112 -12.9768 -25.6222
C 10.8647 -12.0361 -25.4252
C 30.5973 -32.5446 7.62931
C 30.9972 -31.6357 8.36439
C 0.744176 7.39704 -15.4761
C -0.326771 7.22997 -14.9635
C 22.8944 -26.2532 32.3495
C 22.5208 -25.962 33.441
C -2.10291 8.37089 0.497144
C -2.08688 9.61516 0.307498
C 13.6392 -14.4428 -25.6326
C 12.6267 -13.814 -25.6585
H 26.0352 0.524794 -39.1195
C -1.05242 12.2429 -21.8909
C -0.623558 13.3021 -21.5155
C 11.6342 30.588 35.7673
C 11.5943 30.5272 36.948
C 26.0527 0.0707205 -40.0799
C 26.0323 -0.611949 38.9656
C 31.9188 13.5374 32.414
C 31.6835 12.9018 31.398
C 23.7771 35.3125 -33.3386
C 23.9157 35.23 -34.5368
C -26.7977 26.9222 30.3258
C -27.908 26.9714 29.8469
C 18.7222 -39.0978 -28.1931
C 18.5232 -39.6382 -27.1143
C -3.06236 21.915 24.9444
C -2.18434 21.1604 25.482
C 30.9381 10.3889 28.5417
C 30.8165 9.47686 27.7087
C -25.0671 2.46451 -23.2762
C -25.9993 2.17869 -22.5487
H -20.3952 19.3268 -6.36039
C 0.349219 -33.9328 38.2809
C 0.342464 -32.9283 37.5805
C 13.6994 7.13342 24.6249
C 14.024 7.79167 23.669
C 11.4747 -1.1746 26.4741
C 12.0091 -1.36637 27.5633
C -6.00055 7.543 5.35334
C -5.07435 6.9402 4.75541
C -38.8873 -32.6521 -17.6216
C -38.3163 -32.6016 -16.5518
C -35.78 23.3102 -25.2689
C -35.9072 23.5784 -26.4358
C -35.7624 5.63795 -17.4342
C -35.184 6.05843 -18.4191
C 28.0259 11.1348 33.7287
C 27.7505 10.6483 34.8449
C 33.7439 14.4713 -36.8811
C 34.2598 14.4204 -38.0037
252
Atoms. Timestep: 80000
C 3.56583 -2.10575 5.68714
C 3.80408 -3.37291 5.33158
H 2.16604 7.93846 1.17603
C -25.8283 -1.75691 -28.2695
C -25.8571 -2.95865 -28.1685
C -7.19198 5.78667 -8.48354
C -6.50021 5.13058 -7.59539
C -5.62753 2.55092 1.83723
C -5.8114 2.22823 0.616384
C -1.49345 -3.1811 -5.69577
C -2.35428 -2.44126 -5.77124
C 2.32349 7.08646 0.45314
C 1.63576 6.9341 -0.766598
C 3.97586 -4.4591 4.98883
C 4.21966 -5.81688 4.58168
C -5.76279 4.56548 -6.77483
C -4.98224 4.07481 -5.90207
C 1.11927 8.53581 8.3423
C 0.809577 9.55965 8.73398
C 1.51577 7.22816 7.99604
C 1.89511 6.18342 7.65869
C 6.7694 7.4338 5.80238
C 5.56107 7.21608 5.45254
H 0.597216 10.5145 9.22518
C -4.19896 3.63479 -4.86308
C -3.33421 2.64306 -5.39149
C 2.31685 4.98321 7.31562
C 2.68654 3.87803 6.98353
C 0.467734 -4.77236 -5.48363
C -0.397501 -4.01576 -5.57494
C -3.43137 0.800014 -9.19455
C -3.27369 -0.468113 -9.32427
C -22.1502 -30.357 -30.2135
C -23.1506 -30.8489 -30.6515
C 6.12735 5.51239 8.68108
C 5.94623 5.03046 7.56997
C -2.9016 5.79714 -1.58883
C -2.60576 6.39821 -0.650885
C -3.30265 4.97516 -2.73594
C -3.69822 4.43919 -3.63534
C 3.13722 1.54905 6.30519
C 2.99033 2.74152 6.61757
C 1.48564 -5.64208 -5.14316
C 1.90806 -5.75939 -3.82642
H 2.18081 -6.03266 -5.94456
C -3.0053 -3.10691 -9.43941
C -3.10455 -1.76741 -9.38292
C 6.3046 -4.8324 0.543094
C 6.31729 -3.61051 1.19725
C -4.44307 -0.993275 -5.51046
C -3.54427 -1.68628 -5.64075
C -0.584141 0.454915 -6.46582
C 0.665593 -0.300523 -6.70455
C 6.26608 -2.48718 1.74682
C 6.21876 -1.30289 2.3195
C -1.48415 1.083 -6.14228
C -2.52487 1.90027 -5.73351
C -38.3397 13.4881 1.3295
C -38.8464 12.4046 1.64768
C -6.23015 0.628589 -6.41701
C -5.56615 0.0291004 -5.33715
C 3.26329 -6.45947 0.851594
C 2.94377 -6.28344 -0.368327
C 3.59213 -6.43464 2.12417
C 3.90307 -6.21696 3.31576
H 6.97486 -5.70966 0.740673
C -3.45854 7.00106 -12.3762
C -3.27513 7.37526 -13.5214
C 2.67708 -6.15678 -1.50763
C 2.24858 -5.89893 -2.69876
C -0.706271 6.16073 -5.13835
C 0.0400041 6.35554 -4.12814
C 4.0146 -3.17974 -5.25791
C 3.52924 -2.53126 -6.24462
C -1.67282 6.28326 1.87616
C -2.22743 7.01292 0.557166
C 1.58318 -0.929053 -6.86042
C 2.89056 -1.75667 -7.22256
C -3.57895 2.09608 -9.14703
C -3.66666 3.36078 -9.12337
C 3.26174 -1.00168 5.909
C 3.21681 0.26496 6.13794
C 4.83887 -3.95047 -2.99745
C 4.48551 -3.70947 -4.16105
C -9.16931 3.47715 -11.373
C -9.73949 4.00235 -12.202
H -2.19591 -3.65852 -9.82245