123
Atoms. Timestep: 0
O 0.974328 0.729506 3.43567
O 2.00155 1.44734 2.68201
O -0.399498 1.16611 3.35987
O -0.714209 2.29061 2.54153
O -1.25103 0.006 3.38995
O -2.47035 0.00682 2.63587
O -0.40571 -1.13402 3.3954
O -0.711626 -2.30027 2.58358
O 0.960822 -0.694815 3.39553
O 1.9704 -1.45479 2.70579
O 2.61021 0.0132493 -2.42657
O 1.37525 -0.00979471 -3.20573
O 0.91042 2.32337 -2.45539
O 0.554961 1.2037 -3.22763
O -1.85031 1.44197 -2.52416
O -0.805448 0.715138 -3.22714
O -1.83015 -1.33904 -2.52894
O -0.812188 -0.711737 -3.23474
O 0.837805 -2.29232 -2.3956
O 0.536916 -1.17611 -3.26881
O 2.99977 -0.731645 2.01163
O 2.96141 0.677525 1.98052
O 1.63297 2.61427 1.89615
O 0.25366 3.09186 1.86237
O -1.92315 2.25482 1.81105
O -2.79804 1.21631 1.89878
O -2.85812 -1.17631 1.84866
O -1.92794 -2.29113 1.84873
O 0.24848 -3.0825 1.86287
O 1.57912 -2.56903 1.88692
O 2.93993 1.18404 -1.66784
O 2.13026 2.38807 -1.72458
O -0.110421 3.08969 -1.81458
O -1.4555 2.59092 -1.8369
O -2.94107 0.785643 -1.87788
O -2.85416 -0.653749 -1.85694
O -1.52754 -2.58764 -1.82635
O -0.194341 -3.03716 -1.77921
O 2.06569 -2.27164 -1.65693
O 2.88079 -1.13812 -1.64507
O 3.4482 0.698258 -0.399921
O 3.20985 1.44335 0.769484
O 0.498912 3.39935 -0.555614
O -0.305255 3.49678 0.597334
O -3.05879 1.46829 -0.610226
O -3.35191 0.806135 0.628783
O -2.29294 -2.4904 -0.597106
O -1.64783 -2.96086 0.603436
O 1.81077 -3.08275 -0.504431
O 2.40094 -2.64199 0.735787
O 3.24413 -1.50231 0.795316
O 3.44618 -0.753313 -0.406184
O 2.41362 2.62217 0.695349
O 1.83222 3.04324 -0.506593
O -1.66547 2.98826 0.583277
O -2.26795 2.62599 -0.613465
O -3.43514 -0.621237 0.643846
O -3.10401 -1.29012 -0.592242
O -0.33936 -3.48947 0.601292
O 0.438363 -3.53526 -0.584402
C 1.64595 6.57618 23.481
C 0.543525 6.09279 23.5335
H 26.3799 23.525 -27.9877
C -36.5437 -35.0659 19.3554
C -36.1635 -34.2621 18.5484
C -6.33376 -2.25848 29.8553
C -5.42347 -2.68812 29.1923
C -23.5581 -8.64154 35.9739
C -24.4572 -8.03151 36.4942
C -11.1862 -25.3387 -16.9233
C -10.8018 -26.2738 -16.2574
C 27.3132 23.0432 -28.2256
C 28.403 22.5321 -28.4201
C 3.43358 19.8351 7.75913
C 4.11076 20.6562 7.18245
C -4.52218 -3.2454 28.4194
C -3.82491 -3.85912 27.559
C 15.3955 -10.9985 -34.3643
C 14.4278 -11.2966 -34.8993
C 16.6024 -10.6451 -33.7442
C 17.6703 -10.3783 -33.3095
C 9.80348 12.1512 -35.1679
C 10.274 13.1647 -34.6549
H 13.5284 -11.5834 -35.433
C -10.716 -14.3629 -38.7091
C -9.55638 -14.4346 -38.2592
C -14.2108 -15.2287 -17.5642
C -15.3457 -15.0168 -17.9323
C -28.9205 28.8 33.4007
C -28.1217 28.6342 32.5118
C -11.9897 -6.16444 -19.6011
C -11.7265 -6.72177 -18.562
C -7.3913 35.3914 20.8246
C -6.61618 34.6851 21.4431
C 37.6899 -24.1339 -23.6289
C 37.6879 -25.223 -23.0923
C 0.77807 -31.3305 25.0321
C 0.00343842 -31.7049 25.9225
C -37.5776 28.4717 -21.8936
C -37.9605 29.2338 -22.7496
C -26.6555 22.362 -21.068
C -27.145 23.3799 -20.6526
C -12.5915 -26.632 -10.4003
C -12.374 -25.6207 -9.69625
H 4.82248 14.6006 15.3138
C -28.4886 35.6656 -25.0443
C -29.5515 35.2056 -25.5198
C 28.3195 17.2916 1.07225
C 28.0592 18.4746 0.860605
C -29.9115 8.80345 11.7625
C -30.0149 7.8482 12.526
C -6.20895 13.7707 -8.63098
C -5.4007 14.5841 -9.17283
C 37.1075 -24.8211 -35.6465
C 37.268 -25.7621 -36.4287
C -23.4802 25.094 -19.6091
C -24.4072 25.0187 -20.3352
C -22.6531 8.15895 -8.93607
C -23.8408 8.20458 -9.28192
C -27.9906 -3.75492 4.73629
C -29.2904 -3.65116 4.81898
C -20.0291 -36.8719 34.5957
C -19.8478 -36.2352 33.6017
123
Atoms. Timestep: 20000
O 0.959487 0.684981 3.36238
O 1.96146 1.44719 2.7172
O -0.387319 1.13511 3.31506
O -0.685191 2.36248 2.58431
O -1.25103 0.006 3.38995
O -2.47035 0.00682 2.63587
O -0.463013 -1.15634 3.33058
O -0.758335 -2.30865 2.59663
O 0.911917 -0.761461 3.33334
O 1.90868 -1.38058 2.55115
O 2.54976 -0.044374 -2.57226
O 1.3483 0.00336219 -3.29206
O 0.801406 2.25687 -2.48402
O 0.452014 1.12702 -3.21781
O -1.88794 1.50252 -2.65961
O -0.887858 0.700811 -3.32233
O -1.86265 -1.52179 -2.62748
O -0.895883 -0.750021 -3.31804
O 0.817388 -2.33257 -2.55652
O 0.50004 -1.15892 -3.31213
O 2.95095 -0.676625 1.93916
O 2.88573 0.712691 1.88163
O 1.54339 2.56509 1.86044
O 0.25366 3.09186 1.86237
O -1.85251 2.34398 1.81259
O -2.73474 1.13972 1.81654
O -2.83008 -1.09018 1.82144
O -1.95073 -2.2579 1.80382
O 0.24848 -3.0825 1.86287
O 1.62655 -2.59679 1.90458
O 2.84596 1.10309 -1.74118
O 1.94783 2.21043 -1.70089
O -0.141826 3.08747 -1.82457
O -1.4738 2.61745 -1.82188
O -2.77076 0.727679 -1.85052
O -2.79568 -0.736832 -1.94095
O -1.50822 -2.69993 -1.88185
O -0.171184 -2.99425 -1.77486
O 2.00335 -2.29422 -1.75779
O 2.87831 -1.1893 -1.77933
O 3.48614 0.661155 -0.553896
O 3.13784 1.41212 0.63378
O 0.455896 3.55164 -0.606784
O -0.276264 3.5552 0.635663
O -3.06998 1.4531 -0.657846
O -3.38535 0.757974 0.55564
O -2.32015 -2.61189 -0.678733
O -1.73521 -3.00965 0.582944
O 1.82118 -3.03194 -0.548445
O 2.38714 -2.54024 0.661767
O 3.22288 -1.38653 0.713168
O 3.51798 -0.777136 -0.596711
O 2.28805 2.5358 0.645083
O 1.7713 2.97701 -0.522534
O -1.66365 3.10666 0.586334
O -2.23398 2.66234 -0.666576
O -3.25219 -0.611729 0.544303
O -2.99592 -1.35407 -0.637171
O -0.369654 -3.36367 0.671138
O 0.415651 -3.37387 -0.550749
C -1.08293 4.43588 32.9457
C 0.0402698 4.87691 32.7876
H 26.7892 26.468 -22.8703
C -29.2373 -35.9017 12.0488
C -28.5076 -36.3174 11.1817
C -12.1875 -3.72299 33.8144
C -12.3384 -3.76046 32.5685
C -25.5135 -21.5224 36.5702
C -24.6908 -21.6518 37.4199
C -14.2184 -24.816 -16.7303
C -15.3342 -25.1181 -16.4017
C 26.6002 25.3571 -22.8875
C 26.4881 24.1588 -22.9785
C 10.7899 35.008 8.45439
C 11.6986 34.2248 8.26393
C -12.3617 -3.63974 31.2899
C -12.3619 -3.58502 30.0952
C 19.1869 -10.0267 -28.7481
C 19.1565 -10.7465 -27.8322
C 19.0556 -9.13769 -29.7094
C 18.8078 -8.30761 -30.5533
C 6.8597 14.7427 -36.1999
C 7.33151 15.4423 -35.2985
H 19.157 -11.4396 -26.9974
C -13.4204 -17.5813 39.4113
C -14.2355 -18.435 39.3038
C -7.20626 -12.4908 -20.613
C -7.33956 -11.5081 -19.9414
C -31.0995 28.6729 39.9157
C -30.9941 28.1527 38.8202
C -14.8779 -4.98315 -26.6691
C -15.4148 -4.39126 -25.7393
C -3.99755 37.0683 15.4345
C -4.66635 37.0758 16.4601
C 37.8006 -25.617 -31.7007
C 36.9085 -25.0424 -31.1542
C 5.54496 -38.7604 28.9394
C 6.47582 -38.0904 28.4959
C 38.1262 29.6888 -25.0966
C 37.6487 30.4283 -25.9846
C -25.4898 17.2124 -16.3715
C -25.0566 16.1202 -16.2411
C -18.105 -37.7788 -13.1766
C -18.3406 -38.6073 -14.0024
H -25.3797 -23.9326 -9.45538
C -33.9218 33.9904 -36.3064
C -33.0687 33.8976 -37.1843
C 18.3443 27.9538 2.91777
C 18.8262 27.0045 3.54918
C -27.7423 10.9649 9.63286
C -28.1492 10.7594 10.775
C -0.793071 6.79808 -3.26656
C -0.58566 7.08108 -2.13611
C -27.8334 -20.0858 -39.3379
C -27.7352 -20.9947 39.7816
C -14.5577 27.4612 -15.8175
C -13.6189 27.2568 -16.6118
C -26.3052 18.1078 -12.9189
C -26.8612 18.5894 -13.8694
C -22.7528 -5.13668 8.61773
C -23.9376 -5.5433 8.91356
C -32.3112 -35.0533 31.8201
C -32.3792 -34.977 33.0095
123
Atoms. Timestep: 40000
O 0.95195 0.695636 3.28735
O 1.95945 1.44393 2.57056
O -0.392337 1.18116 3.30214
O -0.694168 2.32338 2.54946
O -1.25103 0.006 3.38995
O -2.47035 0.00682 2.63587
O -0.344306 -1.15603 3.39717
O -0.667805 -2.30122 2.59354
O 1.00087 -0.725465 3.38027
O 1.98355 -1.43286 2.68046
O 2.44967 0.00529203 -2.57355
O 1.23752 -0.00885075 -3.27026
O 0.733422 2.36844 -2.613
O 0.36823 1.12717 -3.25235
O -1.96667 1.4792 -2.53108
O -0.966544 0.69042 -3.18025
O -1.88725 -1.41453 -2.48035
O -0.92439 -0.716841 -3.26709
O 0.765617 -2.37633 -2.50626
O 0.413324 -1.21457 -3.28718
O 2.97884 -0.743903 1.87592
O 2.9207 0.699475 1.83932
O 1.61393 2.68337 1.83118
O 0.25366 3.09186 1.86237
O -1.9456 2.27576 1.86039
O -2.84531 1.13238 1.83382
O -2.85944 -1.18325 1.84719
O -1.89682 -2.33086 1.83846
O 0.24848 -3.0825 1.86287
O 1.61944 -2.58162 1.89128
O 2.82176 1.15135 -1.86858
O 1.92128 2.25244 -1.82793
O -0.26518 3.07025 -1.84581
O -1.61941 2.68977 -1.81074
O -2.96761 0.735433 -1.83281
O -2.9928 -0.69896 -1.86204
O -1.57106 -2.63367 -1.83762
O -0.223504 -2.95355 -1.73065
O 2.00441 -2.29794 -1.80995
O 2.83197 -1.17369 -1.85367
O 3.39558 0.729199 -0.60698
O 3.16023 1.4686 0.609038
O 0.397344 3.49253 -0.616311
O -0.338054 3.47322 0.634031
O -3.14229 1.47443 -0.635587
O -3.33209 0.72784 0.532132
O -2.3353 -2.61081 -0.627886
O -1.71215 -3.04594 0.60926
O 1.73012 -2.91031 -0.498938
O 2.33851 -2.48117 0.668919
O 3.22205 -1.37831 0.61808
O 3.45372 -0.708779 -0.597139
O 2.33377 2.62362 0.620963
O 1.70215 2.95532 -0.586816
O -1.696 3.0551 0.651318
O -2.29547 2.65126 -0.544794
O -3.34912 -0.687261 0.592577
O -3.11405 -1.37987 -0.616665
O -0.350088 -3.54403 0.667227
O 0.411144 -3.46659 -0.560134
C -1.59205 3.15506 -37.8838
C -2.69506 2.78876 -37.5928
H 26.9084 27.199 -17.6325
C -21.4938 -36.9735 4.22776
C -21.232 -38.1476 4.27353
C -18.2739 -5.17538 36.084
C -19.1523 -4.63881 35.4279
C -27.0299 -33.6388 39.224
C -26.0528 -34.1343 38.675
C -18.4018 -24.6228 -16.1518
C -18.7872 -23.6916 -16.808
C 25.8635 26.9746 -17.5711
C 24.6963 26.6538 -17.443
C 19.0479 -30.5118 8.96834
C 18.4416 -31.4047 9.53344
C -20.1195 -4.09224 34.8082
C -20.9599 -3.469 34.2382
C 22.6657 -7.85241 -24.1989
C 23.6682 -7.43204 -23.92
C 21.4746 -8.69485 -24.3364
C 20.5716 -9.48473 -24.4114
C 3.95321 17.4362 -37.168
C 4.32929 17.6364 -36.0126
H 24.6134 -6.94643 -23.6319
C -13.7174 -23.9013 37.9976
C -14.8268 -24.3205 37.6563
C -0.300999 -8.80724 -23.0362
C 0.8227 -8.91643 -22.5973
C -33.9448 29.5844 -33.9971
C -34.2326 28.5076 -34.4728
C -18.1375 -3.39819 -33.1607
C -18.7565 -2.45581 -33.5454
C -1.23156 38.7585 11.0073
C -2.06841 39.4688 10.4747
C 36.8081 -26.3919 -39.1287
C 37.2297 -25.5748 -39.9216
C 12.1031 35.0528 32.0033
C 11.1998 34.2284 31.9376
C 33.9427 31.1591 -29.402
C 32.9156 30.9134 -29.9465
C -22.3139 9.24229 -13.5616
C -22.8383 10.3058 -13.5331
C -24.1037 29.4809 -17.7643
C -23.8303 29.9706 -16.6461
H 26.0204 23.2459 -13.675
C -37.7524 31.2667 31.2817
C -37.2094 31.7496 32.2917
C 9.24429 36.8423 5.96391
C 8.64486 37.3812 5.05445
C -25.6805 13.1088 7.80286
C -26.1605 13.7075 8.70958
C -0.0394948 18.3022 -3.03499
C -0.434022 18.1601 -4.20783
C -15.0901 -14.5585 34.6641
C -16.1502 -14.0269 34.617
C -4.67328 29.4812 -12.9907
C -3.97672 29.6456 -11.9425
C -30.3406 29.4683 -15.5978
C -31.3847 29.1841 -16.1225
C -17.6536 -6.54753 12.5401
C -18.4059 -7.41882 12.9976
C 35.2307 -33.1128 31.2161
C 35.1708 -33.829 30.2331
123
Atoms. Timestep: 60000
O 0.928696 0.709838 3.3138
O 1.8864 1.38818 2.52753
O -0.415439 1.18637 3.37127
O -0.717953 2.31634 2.59345
O -1.25103 0.006 3.38995
O -2.47035 0.00682 2.63587
O -0.364268 -1.11329 3.24169
O -0.706738 -2.26489 2.57523
O 0.953481 -0.713909 3.28578
O 1.91021 -1.45951 2.5366
O 2.43521 -0.0567566 -2.66119
O 1.14018 -0.0749306 -3.31729
O 0.66597 2.19333 -2.53831
O 0.245572 1.10265 -3.31258
O -2.12524 1.37212 -2.52365
O -1.10119 0.665958 -3.26593
O -2.02095 -1.44214 -2.42709
O -1.06318 -0.733163 -3.14099
O 0.589609 -2.27229 -2.42817
O 0.267692 -1.21675 -3.25456
O 2.84698 -0.742023 1.79396
O 2.94574 0.678487 1.80315
O 1.54532 2.57983 1.81156
O 0.25366 3.09186 1.86237
O -1.9406 2.23061 1.82547
O -2.7423 1.09505 1.85973
O -2.8247 -1.16726 2.00099
O -2.00644 -2.3591 1.95406
O 0.24848 -3.0825 1.86287
O 1.66387 -2.71561 1.90662
O 2.82009 1.1087 -1.8507
O 1.91108 2.2578 -1.85247
O -0.318623 2.98281 -1.80483
O -1.68759 2.5228 -1.75315
O -3.04974 0.688239 -1.65474
O -3.07762 -0.747028 -1.70761
O -1.66219 -2.60585 -1.66847
O -0.351009 -3.05853 -1.74289
O 1.87815 -2.3362 -1.7896
O 2.70502 -1.20306 -1.78419
O 3.36417 0.693193 -0.63251
O 3.12789 1.39124 0.537696
O 0.353625 3.39976 -0.627214
O -0.327916 3.4012 0.574525
O -3.16204 1.39381 -0.43937
O -3.44595 0.674476 0.714092
O -2.39626 -2.54154 -0.47967
O -1.85456 -3.10901 0.725982
O 1.66903 -3.02664 -0.536784
O 2.34845 -2.67139 0.653824
O 3.0743 -1.45952 0.618849
O 3.28697 -0.734067 -0.539645
O 2.31555 2.59189 0.596087
O 1.67838 2.9304 -0.634645
O -1.73064 3.01667 0.621515
O -2.44203 2.60226 -0.553407
O -3.51887 -0.774762 0.792662
O -3.28915 -1.46399 -0.466398
O -0.466622 -3.51737 0.674144
O 0.294711 -3.51729 -0.569523
C -4.30834 1.13882 -28.1557
C -3.21754 1.44193 -28.5637
H 25.5998 27.4004 -12.1007
C -13.6195 -38.7005 -3.5509
C -14.1133 -39.3177 -2.65125
C -25.3594 -5.76102 37.6138
C -26.246 -5.16963 38.204
C -27.7938 34.1629 -38.3899
C -28.0221 34.0483 -39.5902
C -22.9748 -23.4795 -16.2437
C -21.8373 -23.218 -16.5441
C 24.8832 28.2274 -11.9003
C 24.0751 29.1014 -11.7411
C 26.7001 -16.9149 10.0286
C 25.7642 -16.2013 10.2535
C -27.3413 -4.61417 38.6886
C -28.4013 -4.14846 39.2046
C 24.9263 -6.81955 -19.796
C 24.4839 -6.22796 -20.6533
C 25.5562 -7.44771 -18.6538
C 26.0661 -7.96038 -17.7236
C 1.08642 20.1329 -38.015
C 1.29771 19.8188 -36.8446
H 24.0943 -5.58678 -21.4441
C -10.1453 -32.7232 37.2553
C -10.6483 -33.8227 37.0998
C 7.67223 -5.23273 -25.0315
C 7.89062 -6.22673 -25.6722
C -37.0745 30.4557 -28.1777
C -37.4867 29.4427 -27.6767
C -21.9319 -1.43096 39.9281
C -21.9142 -1.2539 38.7084
C 0.347392 -39.0357 6.14031
C 1.11698 -39.248 5.23711
C 36.3264 -26.1507 32.4852
C 37.0413 -27.1212 32.2976
C 17.007 27.3429 34.8436
C 17.5583 28.0946 35.5913
C 28.4729 31.7896 -35.7929
C 29.1307 31.424 -34.8137
C -20.2758 3.54801 -10.6089
C -19.6324 2.48529 -10.8273
C -29.7402 17.6967 -20.1893
C -29.9935 17.6459 -21.3669
H -7.87755 5.49384 11.1867
C 39.2819 28.88 20.2033
C 38.1095 28.7308 20.6307
C -0.521454 -32.7589 8.1721
C -0.246776 -33.199 7.09992
C -23.7445 15.3505 6.2334
C -24.0533 16.5488 6.39043
C -0.0187018 29.2984 -4.98656
C 0.519334 29.0511 -3.89308
C -7.86311 -5.23794 27.4619
C -7.86918 -5.27419 28.7004
C 5.94404 31.674 -8.98389
C 4.8841 31.8363 -8.44691
C -34.5014 -39.4316 -18.5981
C -35.2956 39.7438 -18.2688
C -12.6591 -8.0715 16.5159
C -12.7882 -9.17548 17.0142
C 22.6806 -32.4997 28.8407
C 22.8564 -31.359 29.234
123
Atoms. Timestep: 80000
O 0.959818 0.679825 3.2843
O 1.90072 1.38053 2.48258
O -0.425746 1.14823 3.35918
O -0.747922 2.33283 2.61105
O -1.25103 0.006 3.38995
O -2.47035 0.00682 2.63587
O -0.410943 -1.16696 3.2772
O -0.732662 -2.34377 2.63886
O 0.896733 -0.733408 3.32543
O 1.85118 -1.35106 2.47545
O 2.32975 0.00203188 -2.5798
O 1.13735 -0.0735772 -3.32054
O 0.697561 2.19638 -2.5638
O 0.260533 1.07738 -3.31068
O -2.0653 1.41121 -2.58754
O -1.11686 0.689576 -3.36537
O -2.04023 -1.49711 -2.54985
O -1.07018 -0.786223 -3.35417
O 0.769223 -2.33747 -2.58459
O 0.26348 -1.22374 -3.30846
O 2.82284 -0.71415 1.70431
O 2.87759 0.685567 1.74136
O 1.59952 2.56225 1.76595
O 0.25366 3.09186 1.86237
O -1.99691 2.30977 1.90285
O -2.86698 1.14505 1.92492
O -2.79124 -1.18513 1.94735
O -1.94098 -2.355 1.89518
O 0.24848 -3.0825 1.86287
O 1.58937 -2.62191 1.84024
O 2.7981 1.13444 -1.87488
O 1.95597 2.2869 -1.88914
O -0.3011 2.9147 -1.80143
O -1.67346 2.54739 -1.79747
O -2.96877 0.625583 -1.7555
O -2.92423 -0.812779 -1.70811
O -1.60397 -2.62661 -1.77509
O -0.241557 -3.11523 -1.82116
O 1.94541 -2.37261 -1.88381
O 2.75774 -1.21759 -1.87025
O 3.41321 0.702612 -0.666673
O 3.15393 1.40741 0.546717
O 0.341118 3.34574 -0.618044
O -0.375879 3.47717 0.640448
O -3.19219 1.36607 -0.535008
O -3.45202 0.674201 0.752075
O -2.30461 -2.57819 -0.532123
O -1.65313 -3.02976 0.648047
O 1.7225 -3.05351 -0.649287
O 2.28463 -2.58189 0.557763
O 3.06929 -1.41652 0.525493
O 3.35642 -0.746975 -0.660766
O 2.31449 2.5667 0.521502
O 1.72973 2.99089 -0.65679
O -1.70693 2.95333 0.644551
O -2.41696 2.57129 -0.566852
O -3.40159 -0.713824 0.710903
O -3.21811 -1.47246 -0.483918
O -0.286654 -3.5221 0.66646
O 0.39389 -3.58721 -0.612585
C -4.89595 -0.330893 -19.1819
C -5.90701 -0.491196 -18.5585
H 23.2277 28.851 -6.06956
C -5.93048 39.2038 -10.9139
C -6.63188 39.8468 -10.1655
C -32.2238 -3.63133 -39.3861
C -32.784 -4.19649 -38.5002
C -28.7269 21.7437 -36.7962
C -29.8545 22.1678 -37.0143
C -26.2722 -22.0486 -16.6644
C -26.2531 -23.0128 -15.9495
C 23.5483 29.9178 -6.11164
C 23.8773 31.05 -6.05857
C 33.5038 -2.41998 11.3204
C 34.1123 -1.55553 10.763
C -33.3433 -4.81897 -37.5133
C -33.8734 -5.41297 -36.5546
C 27.8861 -6.23319 -14.0831
C 27.1423 -7.10435 -13.935
C 28.8535 -5.31634 -14.3901
C 29.7103 -4.42024 -14.5967
C -1.76104 22.8841 -38.7018
C -1.82293 22.0043 -37.8569
H 26.4603 -7.951 -13.8085
C -6.7618 38.0052 36.433
C -6.18968 36.9082 36.608
C 15.9524 -2.64846 -27.7224
C 14.8294 -2.47274 -28.1114
C 39.6214 30.9996 -22.1223
C 39.3582 30.7266 -20.9674
C -27.8799 -1.39857 31.8279
C -27.3075 -2.0585 30.9511
C 2.21343 -36.2085 0.85605
C 2.0482 -36.7607 1.92481
C 36.7236 -27.1241 23.776
C 35.9662 -27.4685 24.6487
C 23.0469 20.9759 39.0777
C 22.9139 20.4541 37.9281
C 24.2022 31.8433 39.4794
C 24.0372 32.5248 38.5228
C -16.973 -4.28563 -8.02523
C -17.6293 -3.35566 -7.68556
C -35.913 5.89219 -24.8573
C -35.7763 5.06203 -23.9255
H 37.8252 -12.4802 36.3245
C 34.8116 26.259 9.47371
C 34.8425 25.8824 8.35194
C -8.51351 -23.3325 8.93318
C -9.10969 -24.3582 9.013
C -21.8489 17.9727 4.62092
C -21.8577 19.0699 4.06831
C 1.19885 40.0016 -4.96092
C 0.575725 -39.3397 -5.81206
C -0.543723 4.14584 21.5476
C 0.502764 3.62912 21.3408
C 15.4633 33.9683 -4.2835
C 14.7852 33.8125 -5.31677
C -38.9274 -28.4869 -21.4828
C -39.0203 -29.2906 -20.5953
C -7.80941 -9.85513 20.6651
C -6.90005 -10.7113 20.9519
C 10.2961 -29.7775 27.3071
C 10.0825 -30.9615 27.3531
123
Atoms. Timestep: 100000
O 0.942354 0.639207 3.29793
O 1.96198 1.36272 2.68247
O -0.405957 1.15486 3.37641
O -0.738321 2.30583 2.59074
O -1.25103 0.006 3.38995
O -2.47035 0.00682 2.63587
O -0.414108 -1.15754 3.38201
O -0.732481 -2.28498 2.54498
O 0.929275 -0.763702 3.33229
O 1.88973 -1.48111 2.55207
O 2.34181 0.0551987 -2.61584
O 1.11648 0.0859506 -3.37163
O 0.699735 2.35966 -2.55019
O 0.258446 1.26805 -3.39849
O -2.04029 1.53838 -2.47114
O -1.08934 0.814092 -3.27234
O -2.04838 -1.3191 -2.58615
O -1.02635 -0.632116 -3.30852
O 0.659882 -2.20781 -2.61746
O 0.307441 -1.06073 -3.3341
O 2.8901 -0.740273 1.81767
O 3.00506 0.693356 1.90599
O 1.59422 2.5372 1.87005
O 0.25366 3.09186 1.86237
O -1.95396 2.37799 1.86958
O -2.79736 1.18332 1.88307
O -2.88428 -1.16692 1.87551
O -1.99723 -2.26092 1.839
O 0.24848 -3.0825 1.86287
O 1.61824 -2.70946 1.82843
O 2.66279 1.1413 -1.74865
O 1.97004 2.34723 -1.80795
O -0.264115 3.05777 -1.76062
O -1.64435 2.68925 -1.77311
O -3.06545 0.761426 -1.8013
O -3.01449 -0.651676 -1.78951
O -1.70939 -2.49944 -1.83156
O -0.313901 -2.8786 -1.80927
O 1.84416 -2.28594 -1.8369
O 2.69706 -1.136 -1.88622
O 3.36635 0.718414 -0.573264
O 3.18365 1.41131 0.677961
O 0.342877 3.4889 -0.524746
O -0.35817 3.5039 0.676272
O -3.1645 1.42511 -0.524877
O -3.41073 0.663183 0.680178
O -2.42287 -2.54559 -0.612682
O -1.79581 -2.98221 0.606692
O 1.64515 -3.03125 -0.612969
O 2.27213 -2.60245 0.58235
O 3.01875 -1.43034 0.581177
O 3.26119 -0.724395 -0.607498
O 2.33149 2.5668 0.661602
O 1.71959 2.96704 -0.544326
O -1.73877 3.0843 0.677732
O -2.35471 2.58672 -0.56705
O -3.48289 -0.784517 0.67443
O -3.26689 -1.40777 -0.582132
O -0.42567 -3.44899 0.645537
O 0.279612 -3.43186 -0.623669
C -7.47903 -2.11282 -8.93549
C -6.6106 -2.12215 -9.76971
H 24.5227 28.7105 -1.74164
C 1.37893 37.4745 -17.8649
C 1.27901 38.6368 -18.1321
C -39.8785 -2.27421 -34.7723
C -39.3981 -3.38372 -34.5543
C -30.4405 9.58134 -35.3422
C -30.9147 9.95876 -34.2864
C -29.5733 -21.9105 -16.1229
C -30.6881 -21.5101 -16.3165
C 24.0939 29.1829 -0.862147
C 23.5594 29.6537 0.0872423
C -39.0283 13.045 12.0223
C -38.159 12.2064 11.8678
C -38.8744 -4.51653 -34.3005
C -38.3982 -5.68459 -34.1999
C 31.8417 -4.72391 -8.70634
C 32.6829 -4.86931 -7.92654
C 30.9765 -4.45885 -9.74817
C 30.3017 -4.0757 -10.6572
C -4.61489 25.5123 -39.2517
C -4.94382 24.3605 -39.0475
H 33.4335 -4.94743 -7.1781
C -3.13199 28.2114 35.6946
C -1.9651 28.0735 36.0648
C 22.9746 0.146006 -30.8641
C 23.0713 1.0898 -30.115
C 36.2158 31.4517 -15.6429
C 36.2854 32.1077 -14.6444
C -33.9301 -1.91551 23.4606
C -33.263 -2.87888 23.6772
C 3.22718 -34.1563 -4.14079
C 2.9125 -33.2705 -4.87393
C 36.1641 -28.5227 16.1383
C 35.8456 -27.3943 15.8801
C 28.928 13.6919 -38.7869
C 28.4619 13.6893 -37.6171
C 19.5532 33.1954 32.8733
C 19.2944 32.3306 33.7041
C -14.9878 -10.2481 -4.75715
C -14.2928 -11.1082 -5.21132
C 38.1165 -7.35377 -28.0292
C 38.2092 -6.15199 -28.0145
H 3.42663 -30.5073 -18.4633
C 30.4119 23.1218 -2.83304
C 31.4821 23.534 -2.41763
C -17.0365 -14.7695 9.75005
C -17.4888 -14.6102 10.8745
C -19.941 20.8076 2.87912
C -19.6625 21.3934 1.8639
C 1.61243 -28.7168 -5.22367
C 2.37921 -28.442 -4.28462
C 8.04951 12.9394 15.3564
C 7.64723 13.1767 14.2188
C 23.2746 38.7881 -0.485396
C 24.3589 39.187 -0.996763
C 36.6061 -17.7231 -24.1427
C 37.2713 -18.0793 -23.1619
C -2.56285 -12.0947 24.987
C -1.37711 -11.8009 24.7408
C -2.53892 -29.3552 25.8218
C -2.31535 -28.2549 25.4138
123
Atoms. Timestep: 120000
O 0.937907 0.865122 3.4152
O 1.87734 1.5132 2.56407
O -0.414222 1.2061 3.39279
O -0.769915 2.29597 2.55238
O -1.25103 0.006 3.38995
O -2.47035 0.00682 2.63587
O -0.29989 -1.04436 3.26592
O -0.676967 -2.23785 2.5828
O 1.04063 -0.545395 3.3392
O 1.89643 -1.2911 2.46751
O 2.43429 0.117861 -2.54291
O 1.19693 0.211652 -3.2966
O 0.766134 2.47327 -2.44554
O 0.331646 1.34471 -3.25246
O -1.95983 1.52429 -2.51572
O -1.00956 0.811876 -3.18901
O -1.91454 -1.36598 -2.57518
O -1.01371 -0.579077 -3.32271
O 0.768475 -2.16005 -2.60446
O 0.412243 -0.991159 -3.32017
O 2.87677 -0.605354 1.78456
O 2.93122 0.845482 1.85867
O 1.61829 2.74472 1.90521
O 0.25366 3.09186 1.86237
O -1.97284 2.25078 1.75845
O -2.80156 1.13403 1.81851
O -2.80133 -1.15617 1.83957
O -1.91106 -2.28928 1.8142
O 0.24848 -3.0825 1.86287
O 1.59912 -2.5783 1.82018
O 2.85077 1.30863 -1.77981
O 2.03979 2.50481 -1.7604
O -0.228739 3.19052 -1.74623
O -1.57795 2.69148 -1.82788
O -2.92522 0.724348 -1.79137
O -2.89515 -0.692023 -1.84845
O -1.59 -2.56164 -1.88852
O -0.239946 -2.88013 -1.85069
O 1.90992 -2.11555 -1.71796
O 2.76375 -1.01245 -1.7908
O 3.42876 0.856448 -0.536937
O 3.21657 1.63182 0.689333
O 0.368995 3.55051 -0.5293
O -0.363941 3.58679 0.671029
O -3.16545 1.49076 -0.578272
O -3.42835 0.706242 0.621841
O -2.36403 -2.5747 -0.664992
O -1.775 -3.02178 0.54847
O 1.75817 -2.88394 -0.554407
O 2.37219 -2.50583 0.597046
O 3.11691 -1.31014 0.589656
O 3.40109 -0.597355 -0.598903
O 2.38483 2.82853 0.72986
O 1.74297 3.17139 -0.504187
O -1.71185 3.08149 0.616979
O -2.26229 2.61523 -0.59056
O -3.45198 -0.718826 0.623421
O -3.19827 -1.41422 -0.60383
O -0.385854 -3.45875 0.592315
O 0.395365 -3.33526 -0.608398
C -5.65712 -3.10429 0.746719
C -5.92171 -2.43762 1.7293
H 26.1024 25.2119 5.5341
C 8.56903 36.4132 -24.9051
C 9.18224 36.7834 -25.8848
C 33.4148 -2.99012 -29.6216
C 34.1828 -3.39411 -30.4884
C -32.4645 -2.22247 -33.1861
C -31.6412 -2.40531 -32.2955
C -34.2735 -21.3007 -15.8043
C -33.6592 -20.4927 -16.4621
C 26.1912 24.2223 5.08216
C 26.363 23.0779 4.65111
C -30.7166 27.5159 12.5544
C -31.401 26.7182 13.1273
C 35.295 -3.70286 -31.1912
C 36.1628 -3.94593 -32.0072
C 34.8666 -2.74656 -4.48891
C 35.4242 -1.86327 -4.94472
C 34.2212 -3.87438 -3.98086
C 33.7683 -4.82072 -3.41948
C -6.68235 28.2342 38.9652
C -7.17927 27.2113 38.5992
H 35.9528 -0.989434 -5.42209
C 0.104973 18.2034 36.3205
C 0.964781 18.9786 36.5785
C 30.0667 3.99354 -33.1799
C 31.2012 3.62969 -32.9577
C 32.8632 32.1211 -8.88824
C 33.2138 33.2562 -8.70361
C -39.5055 -3.02281 15.185
C -39.5932 -3.09772 16.4422
C 2.65353 -26.4015 -11.7019
C 3.1867 -27.3751 -11.2089
C 35.2109 -28.5049 8.24424
C 36.1241 -28.7257 7.50444
C 33.8826 6.39426 -34.6171
C 34.7576 6.9694 -35.1945
C 14.3893 32.9217 27.8156
C 15.1449 33.7526 27.4323
C -11.6385 -17.856 -2.42903
C -12.365 -17.1007 -1.84508
C 32.2971 -18.3181 -29.4651
C 32.0511 -19.2698 -30.2335
H -30.6846 31.6162 6.53837
C 27.5118 20.5526 -14.5352
C 26.6851 20.6652 -13.5983
C -25.9242 -6.16113 11.6023
C -25.362 -5.06058 11.6783
C -18.0136 23.7785 0.977933
C -17.521 23.5377 -0.148171
C 4.05167 -22.239 -2.83942
C 4.30017 -21.0798 -3.21589
C 16.1175 21.9283 7.8955
C 15.1855 22.3758 8.47781
C 30.1463 -30.8142 3.02108
C 30.029 -31.3981 4.08822
C 32.5197 -7.15728 -28.4203
C 33.6155 -6.66837 -28.123
C 3.28203 -14.1394 29.132
C 3.45756 -13.0576 28.6388
C -14.8381 -26.8618 23.4765
C -15.0382 -27.6457 24.3632
123
Atoms. Timestep: 140000
O 0.946533 0.708994 3.29342
O 1.9537 1.51289 2.67663
O -0.382683 1.12944 3.325
O -0.689385 2.29419 2.60851
O -1.25103 0.006 3.38995
O -2.47035 0.00682 2.63587
O -0.385579 -1.14815 3.37801
O -0.731395 -2.28178 2.55762
O 0.973663 -0.688558 3.35284
O 1.92195 -1.38135 2.56747
O 2.58297 0.0406952 -2.50787
O 1.32383 0.000343095 -3.0645
O 0.775244 2.25133 -2.40477
O 0.467901 1.1401 -3.13677
O -1.95914 1.49751 -2.54814
O -0.897373 0.769149 -3.27747
O -1.87432 -1.41045 -2.64427
O -0.875114 -0.64232 -3.27976
O 0.824009 -2.31491 -2.54153
O 0.4664 -1.12471 -3.28301
O 2.90286 -0.645707 1.84997
O 2.9504 0.816991 1.91798
O 1.63793 2.69131 1.92672
O 0.25366 3.09186 1.86237
O -1.97259 2.35047 1.9118
O -2.80142 1.16083 1.87364
O -2.78055 -1.08882 1.72684
O -1.95122 -2.21969 1.80146
O 0.24848 -3.0825 1.86287
O 1.60632 -2.61433 1.90922
O 2.97399 1.25428 -1.7986
O 2.06091 2.37225 -1.76119
O -0.194902 3.01281 -1.6476
O -1.5673 2.63938 -1.77639
O -2.97428 0.794994 -1.84065
O -2.89457 -0.677009 -1.95889
O -1.49669 -2.50397 -1.86075
O -0.147932 -2.97733 -1.80457
O 2.06865 -2.33384 -1.8149
O 2.91878 -1.14902 -1.76118
O 3.49311 0.784339 -0.525712
O 3.18699 1.53198 0.695922
O 0.389722 3.46834 -0.463623
O -0.346677 3.56374 0.661074
O -3.17163 1.47044 -0.577679
O -3.39921 0.744559 0.626238
O -2.31609 -2.51041 -0.685796
O -1.70383 -2.91962 0.562995
O 1.80042 -2.97065 -0.626397
O 2.3084 -2.51855 0.663913
O 3.06583 -1.31139 0.629133
O 3.48721 -0.662645 -0.552633
O 2.40822 2.67834 0.706455
O 1.80304 3.08239 -0.52284
O -1.71914 3.07367 0.663246
O -2.39429 2.66635 -0.548839
O -3.38295 -0.644335 0.525189
O -3.14002 -1.35963 -0.723425
O -0.354307 -3.4153 0.592516
O 0.464053 -3.35019 -0.570927
C -2.70586 -5.62748 13.0022
C -1.87948 -4.75072 12.9813
H 28.6015 16.5085 10.8409
C 16.1396 35.5654 -32.5362
C 16.7719 34.7037 -33.1123
C 29.6202 1.83392 -29.0749
C 29.6448 2.93145 -28.5848
C -33.941 -14.2007 -30.4091
C -32.9275 -14.7023 -30.9071
C -38.2416 -19.7119 -16.2802
C -37.3966 -20.4472 -15.8124
C 28.6402 17.5279 10.4393
C 28.7593 18.6204 10.0165
C -23.0996 -38.7571 13.6502
C -23.931 -37.8778 13.7726
C 29.5997 4.19014 -28.2687
C 29.5918 5.41028 -27.9062
C 37.1353 -2.0054 0.378359
C 36.2645 -2.07547 -0.336914
C 38.355 -1.96564 1.21155
C 39.3156 -1.9836 1.98624
C -8.60103 30.8098 36.9045
C -9.11259 30.1788 35.9816
H 35.4162 -2.14612 -1.02129
C 3.44228 8.43149 37.3154
C 3.35169 9.61714 37.2517
C 31.2183 4.60147 -32.2028
C 32.0081 5.03859 -31.4077
C 29.6137 33.1778 -2.03701
C 30.0104 34.0254 -2.80289
C 34.8386 -4.21563 7.8837
C 34.1047 -3.23683 8.16364
C 3.06628 -20.106 -18.1057
C 2.39543 -19.145 -18.4131
C 39.7787 -29.4506 0.891451
C -39.7524 -28.5965 1.60274
C -33.1167 0.407352 -33.5618
C -33.4641 0.423557 -34.8008
C 10.612 34.2496 21.9567
C 9.56755 33.578 21.9115
C -9.73578 -23.9726 1.07978
C -8.96705 -24.6449 0.36575
C 25.9192 -30.5165 -30.367
C 26.1781 -30.373 -29.2132
H 15.6439 13.4264 32.3466
C 23.5227 18.1189 -25.0686
C 22.9429 17.6368 -26.0493
C -34.3057 3.5536 13.5366
C -33.8157 3.46332 12.4118
C -15.9385 26.7153 -1.26044
C -15.5091 25.7389 -1.84042
C 6.88263 -15.0622 -1.07375
C 5.92652 -15.17 -1.86299
C 23.133 31.4798 1.08201
C 23.8467 31.0927 2.03076
C 31.3051 -21.6208 6.74267
C 32.099 -21.1939 5.90883
C 26.8207 -7.83909 -33.7345
C 27.7056 -8.5122 -33.3048
C 9.29438 -15.4836 32.9693
C 8.17217 -15.0295 32.8803
C -27.5761 -25.8797 22.7775
C -27.4334 -25.5113 21.6512
123
Atoms. Timestep: 160000
O 0.88175 0.741443 3.30599
O 1.94679 1.45423 2.68047
O -0.443456 1.17609 3.40602
O -0.754618 2.39712 2.69705
O -1.25103 0.006 3.38995
O -2.47035 0.00682 2.63587
O -0.351302 -1.15237 3.42069
O -0.758921 -2.30434 2.6307
O 0.996898 -0.655576 3.42516
O 1.96983 -1.42412 2.67074
O 2.52516 0.0217692 -2.43081
O 1.35409 0.030943 -3.22506
O 0.907354 2.3411 -2.48776
O 0.513424 1.20503 -3.28463
O -1.75862 1.50939 -2.56267
O -0.810713 0.789298 -3.32773
O -1.80186 -1.33469 -2.58096
O -0.832828 -0.675273 -3.32735
O 0.8704 -2.31346 -2.54335
O 0.519551 -1.14622 -3.36623
O 2.90563 -0.681511 1.9278
O 2.95485 0.729171 1.92586
O 1.55032 2.64184 1.91593
O 0.25366 3.09186 1.86237
O -1.94175 2.3333 1.86419
O -2.81395 1.23274 1.87469
O -2.81431 -1.17058 1.86036
O -1.97383 -2.34413 1.8309
O 0.24848 -3.0825 1.86287
O 1.60207 -2.58825 1.9517
O 2.88132 1.1767 -1.69619
O 2.084 2.35023 -1.67652
O -0.117903 3.13678 -1.85454
O -1.44301 2.70993 -1.83863
O -2.74513 0.768166 -1.81033
O -2.77649 -0.681621 -1.85232
O -1.41615 -2.48254 -1.83869
O -0.131083 -2.95344 -1.7887
O 2.07595 -2.31213 -1.71095
O 2.94451 -1.14837 -1.72995
O 3.54486 0.728534 -0.482823
O 3.18774 1.43805 0.734309
O 0.465642 3.4748 -0.569262
O -0.340526 3.54137 0.633547
O -3.09738 1.43061 -0.621989
O -3.25661 0.757041 0.596409
O -2.29038 -2.58881 -0.656685
O -1.6626 -3.03141 0.5675
O 1.79579 -3.04633 -0.490152
O 2.37364 -2.61622 0.723301
O 3.22479 -1.43798 0.729845
O 3.50077 -0.703953 -0.514312
O 2.38494 2.65479 0.777369
O 1.87828 3.11351 -0.489766
O -1.65346 2.89814 0.609081
O -2.26623 2.59854 -0.676294
O -3.36547 -0.691758 0.613483
O -3.0851 -1.38601 -0.636266
O -0.29772 -3.5462 0.611145
O 0.422208 -3.43928 -0.60991
C 2.04128 -7.06975 23.3136
C 3.00241 -6.40882 23.6175
H 31.806 13.0013 14.3313
C 24.1306 34.2077 39.447
C 24.0551 33.1118 39.9343
C 24.7072 14.6179 -27.4784
C 24.8132 13.5458 -27.9488
C -34.7317 -26.6151 -27.9616
C -34.9202 -26.7453 -29.1579
C 38.8738 -19.1354 -16.1022
C 37.7246 -19.3771 -15.8154
C 31.3767 12.5162 15.2437
C 30.858 11.9532 16.1702
C -16.3218 -23.9813 14.8842
C -15.5145 -23.3023 14.287
C 25.1618 12.2951 -28.3356
C 25.3211 11.1461 -28.7956
C -39.6158 -1.29148 6.30322
C 39.9785 -2.20749 6.86955
C -39.1656 -0.247829 5.58224
C -38.8212 0.719724 4.87839
C -10.6442 33.2343 34.6745
C -10.9503 33.339 33.4983
H 39.5354 -3.02973 7.46458
C 6.8294 -0.823249 38.7444
C 6.10685 0.107805 38.4579
C 30.8532 1.8545 -25.9186
C 29.9441 1.61782 -26.6758
C 35.6389 34.3708 3.9222
C 34.6615 33.7422 3.64517