270
Atoms. Timestep: 0
O 0.948528 0.684423 3.23422
O 1.98283 1.45512 2.63556
O -0.399204 1.14485 3.27236
O -0.766324 2.31842 2.58665
O -1.25103 0.006 3.38995
O -2.47035 0.00682 2.63587
O -0.42286 -1.15779 3.32025
O -0.722155 -2.3419 2.59407
O 0.949005 -0.730924 3.23154
O 2.02404 -1.44654 2.58671
O 2.49935 0.0252839 -2.50722
O 1.24931 0.00407077 -3.20634
O 0.737123 2.3429 -2.62268
O 0.390839 1.15985 -3.24348
O -2.02447 1.47207 -2.45947
O -0.964603 0.757019 -3.15
O -1.93485 -1.32538 -2.49394
O -0.933219 -0.691201 -3.25693
O 0.802671 -2.29182 -2.53347
O 0.419189 -1.13922 -3.23222
O 2.91469 -0.653121 1.7702
O 2.85169 0.754507 1.78054
O 1.60566 2.65673 1.8591
O 0.25366 3.09186 1.86237
O -2.02148 2.32356 1.91849
O -2.82372 1.16822 1.83034
O -2.84298 -1.18735 1.88974
O -1.94133 -2.26363 1.85075
O 0.24848 -3.0825 1.86287
O 1.64824 -2.64789 1.80631
O 2.82494 1.22705 -1.79441
O 1.97416 2.39341 -1.91652
O -0.233195 2.97635 -1.79016
O -1.59258 2.67679 -1.79473
O -2.96568 0.759799 -1.78855
O -2.86781 -0.62776 -1.74648
O -1.59019 -2.53514 -1.89629
O -0.238298 -3.03486 -1.81641
O 1.97611 -2.22227 -1.79014
O 2.92638 -1.11927 -1.77305
O 3.37461 0.72704 -0.562275
O 3.1401 1.45253 0.638939
O 0.359412 3.39448 -0.556743
O -0.388504 3.37544 0.632143
O -3.19147 1.42524 -0.582691
O -3.45535 0.743685 0.610521
O -2.29505 -2.5191 -0.642844
O -1.72266 -2.95057 0.618035
O 1.70556 -2.95401 -0.611938
O 2.33613 -2.51862 0.582263
O 3.20918 -1.39267 0.557133
O 3.43622 -0.680766 -0.560906
O 2.33781 2.63439 0.616981
O 1.74477 2.9771 -0.622801
O -1.77026 3.04109 0.701569
O -2.34711 2.59503 -0.563831
O -3.44857 -0.710949 0.694013
O -3.08096 -1.32963 -0.537434
O -0.373352 -3.38562 0.57484
O 0.358142 -3.3955 -0.590387
C -3.62358 -1.81651 -4.98488
C -4.47452 -2.42601 -4.20679
H -0.803121 7.94263 -3.48392
C 0.60238 13.6172 22.8889
C -0.351688 12.9077 23.098
C 10.861 5.07648 3.56091
C 9.77052 4.74973 3.13617
C 4.91675 2.85704 -4.61767
C 5.19879 2.36042 -3.64113
C 3.69824 -3.88836 3.54965
C 4.70785 -3.07924 3.33868
C -1.06611 7.15253 -2.75427
C -0.293295 6.94451 -1.63679
C -5.207 -2.89759 -3.4389
C -6.06006 -3.4618 -2.50202
C 8.57076 4.44283 2.73024
C 7.40464 4.08003 2.37454
C 3.15458 5.46979 -10.5479
C 3.77653 6.32756 -10.972
C 2.37801 4.52945 -9.76823
C 1.63223 3.78467 -9.27678
C -5.46314 3.63333 -8.32238
C -4.34335 4.11073 -8.12176
H 4.36879 7.17461 -11.2878
C 6.11537 3.7302 1.99226
C 5.32758 2.68408 2.87607
C 0.781062 2.83948 -8.73607
C 0.089786 2.04082 -8.31345
C 1.79575 -5.56336 4.05909
C 2.80921 -4.78481 3.80381
C -1.71209 5.91925 3.048
C -1.08377 5.52111 3.92554
C 6.61807 -7.81481 20.8972
C 7.37927 -8.66778 21.2603
C -5.23739 -0.0225248 -8.9184
C -5.13716 0.435732 -7.7753
C 4.47332 5.21264 -1.18089
C 3.91593 5.65749 -2.24487
C 5.04723 4.7184 -0.148392
C 5.60021 4.24415 0.861487
C -1.3232 0.325872 -7.08206
C -0.76145 1.17779 -7.64382
C 0.804097 -6.44283 4.40864
C -0.29155 -6.26466 3.59224
H 0.825659 -7.08864 5.31586
C 0.0836546 4.42135 5.97507
C -0.419253 4.9105 5.09556
C -6.71354 -2.7262 3.43959
C -6.70167 -2.19882 2.1909
C 6.32723 -1.31054 2.51258
C 5.51283 -2.16963 2.97859
C 3.81263 -0.11493 4.8998
C 3.20197 -1.24542 5.6125
C -6.6741 -1.69706 1.02836
C -6.60273 -1.0786 -0.0934633
C 4.20505 0.760343 4.29874
C 4.79463 1.97697 3.52239
C -19.685 15.051 9.29452
C -18.9498 15.6741 8.59271
C 8.03086 0.351923 2.92572
C 7.26794 -0.345989 2.02465
C -4.1706 -4.85256 0.654007
C -3.31892 -5.33942 1.42904
C -4.91297 -4.39263 -0.255049
C -5.47251 -3.91383 -1.36384
H -7.69243 -2.93018 3.92452
C -3.34611 1.21512 6.14895
C -4.33028 1.03843 5.46303
C -2.40189 -5.76339 2.20515
C -1.37516 -6.13289 2.87764
C 2.61527 6.4143 2.43351
C 1.81449 6.55143 1.44743
C -0.905262 -3.22856 6.02358
C 0.369649 -3.27919 6.43205
C 2.64759 6.45595 -4.3268
C 3.32933 6.09206 -3.31062
C 2.72273 -2.14445 6.09218
C 1.75238 -3.20746 6.74858
C -2.43286 6.36304 1.97517
C -3.20391 6.64982 1.11219
C -2.82686 -1.27226 -5.65967
C -2.05256 -0.55238 -6.36551
C -3.13688 -3.15348 5.02144
C -2.03126 -3.19559 5.51386
C 11.2244 3.71462 7.21159
C 11.8533 4.37751 7.88977
H 0.583493 3.88972 6.78538
C -6.0602 0.461126 -2.02485
C -6.44227 -0.354829 -1.15525
C -5.43299 -2.82717 3.90009
C -4.32616 -2.97512 4.48542
C 9.34293 1.51397 4.62716
C 8.70519 0.860183 3.75768
C 39.6254 33.163 -8.61774
C 39.4162 33.4843 -9.76512
C -18.0869 6.52906 -5.44707
C -18.997 6.45517 -4.64236
C -6.18976 2.59062 0.556418
C -5.61054 3.30395 -0.220006
C 8.20256 -3.03324 -0.0361098
C 7.10352 -2.51921 0.0534953
C 2.85113 -6.39234 8.65869
C 3.04439 -7.39759 9.27863
C -12.2557 0.26337 -8.96023
C -11.1767 0.839863 -8.82459
C 3.25601 11.498 -10.7914
C 3.88524 12.4727 -11.3214
H -7.16239 -3.35084 -2.50187
C 5.74925 4.83864 6.09421
C 4.962 5.24787 5.20442
C -2.12573 5.0755 -7.58647
C -3.14904 4.60235 -7.96871
C 4.17095 5.64179 4.27462
C 3.42344 6.0802 3.38826
C -7.57982 0.783101 1.67988
C -6.94182 1.69644 1.12738
C 37.3906 28.6742 -12.3323
C 37.1213 29.3396 -13.294
C 7.45882 4.03688 7.73268
C 6.57451 4.50343 6.97052
C 0.034199 6.25917 -6.94206
C -0.999391 5.63864 -7.26757
C 10.4947 2.88323 6.31936
C 9.9907 2.21116 5.50222
C 0.415778 6.77099 -0.630457
C 1.10103 6.63363 0.373118
C 1.17422 8.47251 27.6443
C 1.49241 7.48912 27.0318
H 12.4606 4.96521 8.59766
C 29.962 -35.2516 16.8673
C 28.7813 -35.1071 16.5953
C -0.235309 0.0721232 -15.5244
C -0.130536 0.92446 -14.6797
C 2.52468 -5.36549 7.84588
C 2.15223 -4.44149 7.26146
C 6.04411 1.24298 -1.49585
C 5.6747 1.80312 -2.42509
C 6.95034 0.254748 0.665842
C 6.61581 0.699676 -0.334444
C 4.28186 4.00182 -6.85973
C 4.4519 3.42823 -5.90755
C 37.7028 -28.525 26.6615
C 37.9727 -29.6418 26.3063
C -5.66876 1.10413 -3.03291
C -5.24115 1.92418 -4.11571
C 1.96464 6.75138 -5.32652
C 1.13021 7.06792 -6.51577
C -1.90903 5.94512 -3.06458
C -2.62392 5.08649 -3.25496
H 15.9074 22.2783 -22.1446
C 1.52667 7.96339 -7.54164
C 1.90571 8.8215 -8.35807
C 15.6932 21.3975 -22.7221
C 15.4011 20.4098 -23.3193
C -5.22204 1.44763 -5.40293
C -5.04922 0.985176 -6.58715
C -3.57402 3.94425 -3.52837
C -4.2874 3.10894 -3.71213
C -27.7862 7.72905 16.7193
C -27.7215 7.209 15.6007
C -28.0429 8.24882 17.8414
C -28.3074 8.77678 18.9873
C 21.5465 -19.2477 17.1683
C 21.5997 -20.3872 17.605
C -8.84465 2.01207 -8.70438
C -10.0381 1.46116 -8.78316
C -1.5498 -32.9247 28.7554
C -2.42832 -32.3916 29.3836
C 2.29201 9.78279 -9.25632
C 2.70116 10.653 -10.0715
H 4.005 4.57224 -7.72757
C -7.73311 2.57246 -8.59306
C -6.61479 3.15818 -8.42017
C -39.7776 -10.4437 -1.85476
C 39.1018 -10.4283 -2.37189
C -14.5203 -0.72403 -9.21327
C -13.3553 -0.298088 -9.05689
C -29.8688 28.3805 27.9397
C -29.4864 29.4734 27.5805
C 11.8882 -13.1102 30.7399
C 10.7061 -13.0795 30.9555
C -30.9038 19.3886 -17.3811
C -31.2145 18.2755 -17.7097
C 9.03885 -39.8245 -15.3579
C 9.00248 39.2191 -14.5831
C 32.5428 -16.531 5.86821
C 32.9759 -16.6632 6.98321
C 3.94877 37.781 21.532
C 3.70454 37.486 22.6786
C -12.8134 -26.7724 -10.9648
C -12.5315 -25.5595 -11.0028
H 4.48291 16.7208 9.98006
C -28.2224 35.9118 -24.829
C -29.4922 35.8648 -24.9452
C 28.3208 17.2901 1.07259
C 28.0589 18.4757 0.860408
C -33.8973 4.88688 21.1753
C -33.2373 5.00827 22.2269
C -33.9262 21.5005 16.8572
C -34.0239 20.6078 17.7042
C -11.3718 37.0717 19.2276
C -12.6123 37.4447 19.214
C 5.40756 -7.99544 6.0499
C 4.91654 -7.1953 5.13001
C 19.3769 38.7662 -16.4005
C 20.2279 38.8423 -17.3978
C -30.5742 21.3559 -5.70119
C -31.6094 20.8209 -6.1896
C 7.77423 20.6895 11.5183
C 8.6008 21.6795 11.303
270
Atoms. Timestep: 20000
O 0.926392 0.721015 3.37396
O 1.88486 1.43841 2.6087
O -0.433487 1.17316 3.34888
O -0.733752 2.35218 2.60767
O -1.25103 0.006 3.38995
O -2.47035 0.00682 2.63587
O -0.381442 -1.13613 3.33865
O -0.734271 -2.29099 2.58933
O 0.970816 -0.744854 3.28896
O 1.96902 -1.50731 2.59906
O 2.45712 -0.0400691 -2.5827
O 1.23212 -0.00885169 -3.27653
O 0.757147 2.33534 -2.50791
O 0.371425 1.16564 -3.25417
O -1.96276 1.39037 -2.53531
O -0.986926 0.684395 -3.2791
O -1.94592 -1.42104 -2.50129
O -0.959576 -0.736039 -3.25717
O 0.725148 -2.35147 -2.50655
O 0.412777 -1.1653 -3.2429
O 2.93372 -0.775106 1.81994
O 2.81151 0.623701 1.80993
O 1.58821 2.6043 1.84792
O 0.25366 3.09186 1.86237
O -1.93835 2.32721 1.83116
O -2.77712 1.14092 1.80487
O -2.89804 -1.15105 1.8958
O -1.9597 -2.21208 1.82838
O 0.24848 -3.0825 1.86287
O 1.62844 -2.6629 1.85686
O 2.77814 1.08067 -1.74986
O 1.96221 2.2857 -1.72746
O -0.204511 3.0853 -1.80978
O -1.55264 2.5425 -1.72763
O -2.92993 0.703531 -1.78369
O -2.89654 -0.739636 -1.75183
O -1.59871 -2.62214 -1.84083
O -0.253906 -3.10166 -1.7994
O 1.95171 -2.33674 -1.77435
O 2.79068 -1.23753 -1.84155
O 3.33201 0.633806 -0.537545
O 3.1567 1.36941 0.641193
O 0.33776 3.51728 -0.567853
O -0.31397 3.42844 0.616385
O -3.2444 1.44733 -0.61986
O -3.38107 0.697068 0.56639
O -2.28902 -2.66805 -0.577588
O -1.75533 -3.0493 0.697915
O 1.69663 -3.05877 -0.542326
O 2.33573 -2.70839 0.67786
O 3.14753 -1.49469 0.579871
O 3.4442 -0.786219 -0.634099
O 2.31685 2.52562 0.621356
O 1.71477 3.05989 -0.564218
O -1.70982 3.02415 0.618722
O -2.37021 2.56268 -0.539213
O -3.47214 -0.734732 0.62466
O -3.12806 -1.50401 -0.545179
O -0.420944 -3.46267 0.664818
O 0.354471 -3.44179 -0.515858
C -5.30575 -1.5232 -3.66833
C -6.00752 -2.23298 -2.81415
H 0.237365 7.17249 -6.02255
C 7.90991 9.49768 18.5433
C 7.40388 10.5537 18.2259
C 11.1113 5.4427 4.69543
C 10.1563 4.76413 4.2249
C 5.58678 0.356363 -4.09514
C 5.79859 0.233258 -2.99167
C 3.34553 -3.63111 5.04313
C 4.33418 -3.04882 4.86253
C 0.0417252 6.63898 -5.08354
C 0.842658 6.54091 -4.02688
C -6.5833 -2.91459 -1.95756
C -7.13486 -3.64871 -1.02055
C 9.10442 4.15492 3.81153
C 8.01515 3.57849 3.42525
C 3.03066 1.85422 -10.4402
C 4.00799 2.13242 -10.9475
C 1.83498 1.49061 -9.75576
C 0.910246 1.333 -9.089
C -4.17698 5.27162 -8.41414
C -2.89192 4.97972 -8.14301
H 4.90707 2.53256 -11.498
C 6.86503 3.00572 2.91543
C 5.78887 2.47284 3.86559
C -0.125086 1.06461 -8.30791
C -0.978351 0.884437 -7.51986
C 1.24502 -4.97617 5.29026
C 2.2458 -4.25011 5.14724
C -5.39866 4.97775 -0.0769968
C -4.30429 5.34929 -0.0206301
C 8.98931 -4.97767 17.6435
C 9.96519 -5.68225 17.5719
C -9.44521 2.28497 -7.81198
C -8.34247 2.49932 -7.30743
C 5.6697 3.59524 -0.770508
C 5.22105 3.72076 -1.83549
C 6.0584 3.43793 0.502509
C 6.50455 3.25447 1.56669
C -2.99177 0.365227 -5.91887
C -1.99799 0.651999 -6.71565
C 0.341759 -6.00929 5.665
C -0.672204 -5.9269 4.78243
H 0.304211 -6.72441 6.54173
C -1.95169 6.32038 0.210333
C -2.98001 5.85908 0.0783262
C -7.17697 -2.27848 2.75801
C -7.12669 -1.42896 1.67488
C 6.22626 -1.66061 4.07587
C 5.33881 -2.31153 4.52204
C 3.15943 0.492609 5.56957
C 2.14308 -0.422999 6.1968
C -6.99076 -0.619768 0.631566
C -6.78809 0.132045 -0.370376
C 3.92974 1.17413 5.09958
C 5.00552 1.9307 4.4604
C -22.8658 25.9615 5.74662
C -23.8361 25.3557 5.27547
C 8.00546 -0.137619 4.36296
C 7.24255 -0.933705 3.49513
C -4.39774 -4.91364 1.61723
C -3.5259 -5.18937 2.40943
C -5.25439 -4.57413 0.713694
C -6.11703 -4.15286 -0.11036
H -8.06252 -2.91114 2.9518
C -1.14722 7.51804 4.37705
C -0.275663 7.98029 5.07134
C -2.49943 -5.51804 3.164
C -1.57406 -5.81137 3.94784
C 3.33438 6.21326 0.437122
C 2.78545 6.27303 -0.726111
C -1.64956 -2.5637 5.98864
C -0.669111 -2.41797 6.58236
C 4.27447 4.06791 -4.18797
C 4.7186 3.946 -3.01743
C 1.47087 -1.09841 6.78216
C 0.566232 -2.18549 7.31097
C -6.64214 4.49203 -0.281506
C -7.76946 4.06203 -0.301234
C -4.66478 -0.793945 -4.43456
C -3.83039 -0.211172 -5.17588
C -3.83934 -2.76459 4.78392
C -2.90474 -2.74831 5.44954
C 11.0001 3.60268 8.75833
C 11.39 4.24531 9.59546
H -0.943728 6.69826 0.315354
C -6.21758 1.44356 -2.44522
C -6.5184 0.827934 -1.43394
C -5.9694 -2.46941 3.43444
C -4.9295 -2.61537 4.04336
C 9.30227 1.34915 5.90935
C 8.62985 0.596412 5.15498
C -33.047 39.685 0.0481452
C -33.0456 -39.8356 -1.08605
C -19.5907 7.20531 -1.40845
C -18.5905 6.7143 -1.83486
C -3.15747 5.45314 5.61394
C -2.62431 4.44325 5.20803
C 8.47393 -3.9651 0.290184
C 7.66307 -3.42976 -0.42855
C 1.39677 -3.99605 10.7724
C 1.48124 -4.59651 11.8751
C -11.1774 7.28225 -10.2895
C -10.1182 6.86582 -9.85778
C 7.9357 3.34427 -11.1519
C 8.7329 3.37228 -12.1198
H -8.24458 -3.59703 -0.866001
C 4.90569 5.5908 5.21709
C 4.60115 5.92667 4.0589
C -0.49727 4.63587 -7.59475
C -1.72787 4.69561 -7.84164
C 4.16054 6.08937 2.84713
C 3.68705 6.16544 1.68568
C -4.64164 7.41741 6.18237
C -3.89873 6.44137 5.94049
C -39.9758 26.6685 -5.18093
C 38.8625 26.4672 -4.92078
C 5.75306 5.15733 7.50728
C 5.29534 5.35497 6.37378
C 1.95595 4.50259 -6.98174
C 0.712159 4.52572 -7.29489
C 10.4633 2.7818 7.66052
C 9.98449 2.1156 6.8526
C 1.58335 6.42154 -2.99968
C 2.30113 6.27824 -1.94966
C 4.71183 14.6497 18.8117
C 3.92922 13.835 19.1883
H 11.7481 4.86206 10.4304
C 25.0735 -36.499 14.9098
C 26.2283 -36.2008 15.081
C -5.89121 2.26921 -9.58187
C -5.85645 2.11827 -10.7625
C 1.17328 -3.37689 9.63271
C 0.888228 -2.85929 8.47565
C 6.52548 -0.162698 -0.545771
C 6.2334 0.0583203 -1.62024
C 6.8974 -0.59938 2.01197
C 6.77596 -0.430118 0.915531
C 5.15767 0.666291 -6.64595
C 5.3806 0.610478 -5.54919
C -38.4083 -30.703 33.6326
C -38.0561 -31.2246 32.5986
C -5.91154 2.10422 -3.47674
C -5.43158 2.84736 -4.5856
C 3.84148 4.26356 -5.37295
C 3.38161 4.56527 -6.70725
C -1.11713 5.78914 -4.89863
C -2.08353 5.19915 -4.85345
H 13.9264 25.9826 -22.9153
C 4.38489 4.23133 -7.63052
C 5.25471 3.8765 -8.51242
C 14.3728 25.1335 -22.3561
C 14.9831 24.2368 -21.7482
C -6.37765 2.78631 -5.65793
C -7.26734 2.67615 -6.56197
C -3.29652 4.38473 -4.71325
C -4.21388 3.75247 -4.62419
C -27.264 7.72857 20.1111
C -26.4435 8.08039 19.2066
C -28.2127 7.47035 20.9118
C -29.08 7.10932 21.6964
C 12.0254 -36.4631 24.1837
C 12.7672 -37.2605 24.6951
C -7.82392 6.17457 -9.24863
C -8.94671 6.44135 -9.51219
C -14.5245 -25.7563 19.8945
C -15.2776 -25.2906 20.7346
C 6.08865 3.49505 -9.34417
C 6.94973 3.35607 -10.2332
H 4.91055 0.750024 -7.75465
C -6.61383 5.88719 -8.92267
C -5.36077 5.65982 -8.71399
C -32.9009 -10.7882 9.0836
C -31.8841 -10.4942 9.67652
C -13.2638 8.05613 -11.4573
C -12.2774 7.68265 -10.8608
C 36.8957 23.2475 23.4099
C 37.3061 24.3417 23.672
C 16.2626 -26.5089 24.7461
C 15.431 -26.85 25.5435
C -25.7623 27.622 -22.2939
C -25.3324 26.5149 -22.5314
C 7.55722 36.4075 -18.1275
C 7.11346 36.8046 -17.0888
C -33.4133 -10.1604 3.74511
C -33.9013 -11.1619 3.27949
C -1.53782 34.8992 26.7453
C -1.2333 35.5296 25.7694
C -16.5434 -21.0095 -15.11
C -16.3842 -21.2784 -13.9117
H -7.61633 -28.085 -16.0245
C -28.0468 29.5275 -18.7737
C -27.4296 29.337 -19.8008
C 28.1133 13.0641 1.06116
C 27.4743 12.5631 0.132974
C -19.2535 2.48016 17.6004
C -19.9241 2.01242 16.6964
C -34.2354 10.1374 16.8765
C -34.7195 10.5883 17.8813
C -3.12078 33.8545 16.1955
C -2.88162 34.3405 17.3336
C 4.84224 -5.16722 8.06813
C 4.43625 -3.9772 7.91267
C 13.7427 32.021 -11.0237
C 14.4738 32.0379 -12.0374
C -26.1853 25.6338 -4.55964
C -26.6641 25.6601 -3.42202
C 8.73933 19.3014 -2.50428
C 8.73165 20.556 -2.6492
270
Atoms. Timestep: 40000
O 0.936193 0.68613 3.21672
O 1.93919 1.42428 2.57553
O -0.384432 1.17757 3.33188
O -0.743825 2.41894 2.63388
O -1.25103 0.006 3.38995
O -2.47035 0.00682 2.63587
O -0.37522 -1.10018 3.34899
O -0.708355 -2.31583 2.61118
O 0.958702 -0.703891 3.30156
O 1.97721 -1.41908 2.56577
O 2.31304 0.0107838 -2.54054
O 1.13384 -0.0212874 -3.39092
O 0.643417 2.29154 -2.52768
O 0.261626 1.13973 -3.32023
O -2.08199 1.44949 -2.53871
O -1.1255 0.732681 -3.32604
O -2.04003 -1.38118 -2.50448
O -1.12512 -0.670465 -3.31501
O 0.583418 -2.30118 -2.57622
O 0.221272 -1.18112 -3.33563
O 3.01086 -0.728685 1.84212
O 2.9958 0.73789 1.87254
O 1.5935 2.56883 1.79832
O 0.25366 3.09186 1.86237
O -1.9625 2.35491 1.88157
O -2.81298 1.19135 1.90697
O -2.78024 -1.18161 1.88608
O -1.94328 -2.34996 1.88956
O 0.24848 -3.0825 1.86287
O 1.60676 -2.63327 1.85442
O 2.72838 1.15535 -1.83396
O 1.92309 2.3095 -1.84463
O -0.30441 2.99358 -1.75993
O -1.72878 2.64451 -1.8312
O -2.97168 0.695184 -1.72315
O -3.05604 -0.726767 -1.69545
O -1.68931 -2.58338 -1.77006
O -0.350022 -3.00825 -1.77575
O 1.80739 -2.27001 -1.7848
O 2.71456 -1.21165 -1.88396
O 3.33313 0.648257 -0.6419
O 3.13716 1.35126 0.586929
O 0.353458 3.46446 -0.574704
O -0.387422 3.52331 0.658156
O -3.17856 1.37212 -0.494907
O -3.34288 0.634656 0.726127
O -2.44696 -2.66729 -0.516605
O -1.75845 -2.98275 0.65625
O 1.56868 -2.96384 -0.544993
O 2.20993 -2.48815 0.602091
O 3.08085 -1.4239 0.595313
O 3.36089 -0.825399 -0.682152
O 2.32896 2.53596 0.617419
O 1.71817 2.99466 -0.589283
O -1.66638 3.04154 0.622364
O -2.42011 2.61147 -0.588207
O -3.43035 -0.762603 0.736752
O -3.23927 -1.46165 -0.494841
O -0.430389 -3.50012 0.658755
O 0.275372 -3.51926 -0.602923
C -5.59751 -0.722466 -3.61233
C -6.42004 -1.203 -2.7604
H 3.24397 5.80188 -4.76041
C 11.2721 10.2536 15.5265
C 12.3233 9.74671 15.7987
C 11.3059 4.14911 5.17865
C 10.3408 3.71925 4.5516
C 6.25468 -1.14655 -2.97994
C 6.23086 -1.21158 -1.84982
C 0.96632 -2.51116 6.61227
C 2.14315 -2.19315 6.19646
C 2.4521 5.54469 -4.04296
C 2.63566 5.44536 -2.78197
C -7.12224 -1.58874 -1.82456
C -7.90861 -2.00118 -0.799132
C 9.2351 3.41754 3.97446
C 8.19707 3.08271 3.38877
C 1.34957 2.68557 -11.9503
C 1.98008 3.07881 -12.8198
C 0.562536 2.15369 -10.8832
C -0.131206 1.90233 -9.98146
C -2.22153 6.10916 -8.44985
C -1.05183 5.46573 -8.51239
H 2.42336 3.54559 -13.7068
C 6.92008 2.80164 2.7762
C 5.7228 2.36311 3.64551
C -0.879953 1.55289 -8.95712
C -1.56077 1.05464 -8.04073
C -1.3175 -3.21076 7.38994
C -0.214787 -2.85326 7.0235
C -4.99083 4.69978 1.16299
C -4.34603 5.10882 0.311397
C 11.4323 -2.25166 14.4451
C 12.4463 -2.62365 13.8732
C -5.71538 4.55116 -10.282
C -5.38523 4.38587 -9.15871
C 6.1059 2.68431 -0.977858
C 5.62316 2.60259 -2.22335
C 6.50737 2.76287 0.298969
C 6.7279 2.74805 1.43774
C -3.14894 0.388202 -6.30151
C -2.29395 0.683957 -7.1835
C -2.5845 -3.60631 7.74256
C -3.38121 -3.38632 6.63322
H -2.93183 -3.84858 8.76545
C -2.88338 5.88874 -1.71086
C -3.53362 5.57202 -0.858989
C -7.73851 0.77162 2.08904
C -7.21477 1.16118 0.87002
C 4.43588 -1.67572 5.3085
C 3.31259 -1.97816 5.64988
C 2.71861 1.33596 5.57067
C 1.54026 1.06059 6.3663
C -6.83097 1.46973 -0.263232
C -6.46191 1.82747 -1.43103
C 3.67655 1.58733 4.99782
C 4.8323 2.03518 4.26009
C -27.4579 35.8395 1.43621
C -27.2291 35.866 2.6291
C 6.32524 -0.426885 5.6488
C 5.73303 -1.38459 4.82169
C -6.14132 -2.65608 2.58805
C -5.60433 -2.83731 3.67324
C -6.63546 -2.46881 1.45352
C -7.19742 -2.24719 0.349598
H -8.79012 0.443732 2.18326
C -3.22692 7.59283 2.31694
C -2.66947 7.86515 3.34255
C -4.98775 -3.03314 4.68652
C -4.16624 -3.18597 5.6957
C 3.94103 5.23807 2.10973
C 3.63635 5.34416 0.886177
C -2.8656 0.462274 6.20962
C -1.90474 0.438841 6.85922
C 4.83662 2.19683 -4.57316
C 5.21143 2.39769 -3.39545
C 0.586406 0.82541 6.91897
C -0.725434 0.477553 7.65138
C -5.78606 4.29244 2.22051
C -6.35551 4.07072 3.26619
C -4.80479 -0.43641 -4.54121
C -3.97685 -0.0552401 -5.45704
C -4.96237 0.482723 4.80993
C -3.98641 0.492347 5.43174
C 9.37836 4.64088 7.9084
C 9.85165 5.60412 8.2581
H -2.2427 6.16685 -2.52427
C -5.36545 3.00095 -3.38269
C -5.90386 2.39859 -2.38371
C -6.79661 0.590778 3.16577
C -6.01204 0.490482 4.00029
C 7.55383 1.38687 6.80656
C 6.86712 0.467819 6.36875
C -25.7969 -33.8354 8.59559
C -25.5392 -33.2254 7.58067
C -19.2097 7.00287 1.7673
C -20.0617 7.84598 1.79052
C 1.8184 4.69321 6.66863
C 1.69401 5.12644 5.45998
C 1.34591 -7.46708 -4.22086
C 1.64253 -7.61651 -3.06883
C -0.329039 0.590277 11.6388
C -0.0884902 0.368552 12.808
C -8.5178 10.2216 -7.51262
C -7.55676 9.34798 -7.4912
C 7.26537 -2.32825 -10.7418
C 8.14735 -3.06971 -11.2767
H -9.02258 -1.97012 -0.872618
C 5.06321 4.65402 7.06008
C 4.76328 4.95319 5.8529
C 1.05436 4.17815 -8.16432
C -0.0535917 4.85228 -8.46115
C 4.52349 5.14147 4.62314
C 4.26682 5.22586 3.34582
C 1.86241 4.54373 9.18075
C 1.92229 4.61495 7.94036
C -38.5169 24.4947 2.18742
C -38.2386 23.8205 3.15023
C 5.67106 3.86777 9.30534
C 5.40392 4.2209 8.1838
C 2.91115 2.62698 -7.59614
C 1.98264 3.43067 -7.8638
C 8.73323 3.39914 7.46286
C 8.18459 2.3795 7.15942
C 3.01804 5.38838 -1.53482
C 3.44779 5.36407 -0.295868
C 10.2645 16.8484 9.0707
C 10.9943 17.6967 8.64882
H 10.3931 6.49054 8.7017
C 22.4255 -37.1118 13.294
C 21.4709 -37.9166 13.2794
C -4.62161 5.06265 -15.1231
C -4.80233 6.26818 -14.9474
C -0.577609 0.541664 10.3038
C -0.723229 0.5549 9.05621
C 6.21891 -1.4209 0.722921
C 6.3614 -1.35836 -0.403075
C 6.05567 -1.3982 3.30274
C 6.16654 -1.36623 2.1716
C 6.47097 -0.875 -5.55138
C 6.396 -1.04312 -4.42407
C -34.4515 -32.9928 -39.7238
C -34.2045 -32.6707 39.1313
C -4.68081 3.44232 -4.36791
C -3.9075 3.90316 -5.44542
C 4.47342 2.00869 -5.73661
C 3.93587 1.78824 -7.05787
C 1.1009 5.09257 -4.3668
C 0.0726099 4.72273 -4.66719
H 13.0619 27.652 -22.3794
C 4.57247 0.824881 -7.9282
C 5.1104 -0.00975349 -8.70962
C 13.4777 28.2374 -21.6029
C 14.0588 28.8149 -20.6863
C -4.50162 4.09208 -6.75301
C -4.92588 4.20989 -7.93499
C -1.31892 4.31051 -5.02814
C -2.38572 4.06045 -5.26073
C -27.7519 7.6646 23.9758
C -26.759 8.14847 23.327
C -28.7697 7.13235 24.518
C -29.765 6.86332 25.1275
C 2.69545 26.258 31.2558
C 3.86421 26.1537 31.6358
C -5.46835 7.86033 -7.77078
C -6.4933 8.52252 -7.58888
C -27.4231 -18.6283 11.1364
C -28.0332 -18.243 12.0977
C 5.72349 -0.760689 -9.52822
C 6.41072 -1.56464 -10.2162
H 6.44995 -0.678936 -6.63926
C -4.38229 7.3076 -8.02742
C -3.30401 6.68897 -8.26472
C -24.9755 -10.4311 20.1169
C -25.5273 -11.3308 19.5087
C -10.4404 11.961 -7.74364
C -9.471 11.1853 -7.51012
C 23.7962 18.2788 18.9392
C 24.1364 19.1132 19.7598
C 20.4464 -39.8929 18.9377
C 20.2997 39.5462 19.9895
C -21.0296 36.2943 -26.4274
C -21.083 36.1893 -25.2339
C 5.80507 32.9411 -20.2398
C 5.51794 34.1287 -20.2169
C -19.2679 -4.15874 1.72182
C -19.5543 -5.29818 1.48447
C -6.3947 33.2849 30.0513
C -6.73332 32.3372 30.7108
C -20.0676 -15.5606 -17.9018
C -20.3929 -16.7493 -18.1276
H -22.0864 5.69463 38.4808
C -26.0512 21.6802 -15.4744
C -25.233 22.3749 -14.8086
C 27.143 8.25352 -0.0617938
C 27.6577 7.30166 0.521916
C -4.64382 -0.634092 10.8314
C -3.84738 -1.13181 11.6032
C -34.6034 -0.888973 17.6972
C -34.8413 0.25119 17.5169
C 5.34778 31.1441 14.3415
C 6.51434 30.7713 14.3094
C 4.94789 -0.140624 8.7844
C 4.90476 -0.389272 10.0351
C 8.10821 25.3117 -5.65494
C 8.79389 25.2862 -6.74018
C -22.279 29.956 -2.23455
C -21.3267 30.4635 -1.7269
C 9.85806 18.3296 -16.5482
C 8.9074 19.133 -16.4686
270
Atoms. Timestep: 60000
O 0.90479 0.68501 3.3609
O 1.87926 1.39062 2.53174
O -0.399299 1.13566 3.28931
O -0.743492 2.38877 2.63204
O -1.25103 0.006 3.38995
O -2.47035 0.00682 2.63587
O -0.362911 -1.16589 3.36013
O -0.734579 -2.29304 2.58071
O 0.967881 -0.726057 3.33383
O 1.87933 -1.42874 2.4887
O 2.28752 0.0400798 -2.71997
O 1.04236 0.0345962 -3.44492
O 0.608192 2.31063 -2.60816
O 0.182148 1.20712 -3.3283
O -2.11945 1.46832 -2.51236
O -1.12075 0.687936 -3.1487
O -2.20763 -1.43244 -2.47189
O -1.12965 -0.770939 -3.11771
O 0.610645 -2.31034 -2.59401
O 0.213387 -1.15358 -3.29606
O 2.8051 -0.77024 1.64006
O 2.83316 0.647532 1.70738
O 1.59751 2.57781 1.77776
O 0.25366 3.09186 1.86237
O -1.99277 2.35855 1.92986
O -2.76939 1.15713 1.85205
O -2.82496 -1.14231 1.89033
O -1.96068 -2.23602 1.83856
O 0.24848 -3.0825 1.86287
O 1.6191 -2.62356 1.73827
O 2.76093 1.15536 -1.93919
O 1.80719 2.26586 -1.88255
O -0.318799 3.04416 -1.83921
O -1.67641 2.59719 -1.78495
O -3.09908 0.690448 -1.78056
O -3.15429 -0.745627 -1.75658
O -1.75672 -2.58756 -1.74664
O -0.359424 -3.05293 -1.85491
O 1.85113 -2.29722 -1.90947
O 2.70885 -1.10567 -1.93421
O 3.40687 0.710459 -0.738538
O 3.09355 1.40162 0.509897
O 0.24988 3.47429 -0.60552
O -0.427013 3.54981 0.676203
O -3.18185 1.34491 -0.522796
O -3.53677 0.686505 0.716949
O -2.44114 -2.52121 -0.515993
O -1.75761 -2.97472 0.634207
O 1.61671 -3.00979 -0.723811
O 2.2717 -2.60569 0.423251
O 2.92615 -1.30635 0.419102
O 3.26679 -0.696575 -0.711818
O 2.23825 2.50723 0.520822
O 1.62729 3.00405 -0.669685
O -1.7805 3.00784 0.667376
O -2.34715 2.52745 -0.519795
O -3.53192 -0.733315 0.733602
O -3.40469 -1.4449 -0.484945
O -0.411326 -3.50948 0.608244
O 0.267127 -3.39123 -0.651752
C -4.93938 -0.700506 -4.46114
C -5.75167 -1.14315 -3.53477
H 4.16045 6.71659 -4.83523
C 16.2238 10.5986 12.9001
C 15.06 10.8098 13.1693
C 11.4325 2.76101 5.33866
C 10.3402 2.57758 4.87098
C 6.41536 -1.45266 -3.31505
C 6.44296 -1.48398 -2.19518
C 0.766642 -1.79675 6.48897
C 1.90644 -1.72832 6.01391
C 3.45917 6.19133 -4.1221
C 3.77849 5.92031 -2.83173
C -6.57186 -1.57201 -2.72562
C -7.55754 -2.08596 -1.90081
C 9.1441 2.51727 4.3389
C 8.09537 2.44962 3.81239
C 1.49627 4.55938 -12.3408
C 2.08892 5.20514 -13.0724
C 0.772833 3.70902 -11.4542
C 0.151611 3.16671 -10.646
C -1.08294 7.89883 -9.19198
C -0.281833 7.11983 -8.71012
H 2.72888 5.78868 -13.7616
C 6.80878 2.40701 3.1956
C 5.54496 2.3588 4.12328
C -0.562985 2.53336 -9.68534
C -1.07913 1.86561 -8.81123
C -1.63652 -1.75035 6.98622
C -0.46815 -1.78603 6.7957
C -4.59074 5.28106 -0.670493
C -3.56274 5.51592 -1.15056
C 14.4218 0.791948 9.90328
C 13.7256 0.197983 10.7071
C -3.65463 4.96956 -10.7741
C -3.37489 4.70366 -9.53314
C 6.25527 2.38272 -0.543699
C 5.76406 2.51815 -1.7341
C 6.68493 2.37581 0.673714
C 6.91495 2.35737 1.81926
C -2.53195 0.845942 -7.02391
C -1.7721 1.2928 -7.90684
C -3.00651 -1.7598 7.30201
C -3.70665 -1.64222 6.1058
H -3.44674 -1.6202 8.29362
C -1.25231 6.14024 -2.07637
C -2.27634 5.85783 -1.65786
C -8.12548 1.30981 0.893481
C -7.52967 1.80383 -0.21465
C 4.23562 -1.48701 5.044
C 3.04709 -1.63479 5.46399
C 2.25423 2.10453 5.89101
C 0.787686 2.11264 6.35743
C -7.05743 2.27079 -1.27172
C -6.32355 2.64389 -2.22074
C 3.25045 2.18632 5.42325
C 4.62656 2.36924 4.7521
C -31.6553 -34.2189 -1.12755
C -31.0192 -33.6253 -1.99743
C 6.23518 -0.529765 5.42409
C 5.52271 -1.3495 4.55458
C -6.21316 -1.78717 1.74299
C -5.71516 -1.76615 2.80796
C -6.76894 -1.77292 0.591529
C -7.14489 -1.91738 -0.619997
H -9.1986 0.967142 0.986258
C 6.85707 10.4162 8.45877
C 6.95464 9.36021 7.88885
C -5.09632 -1.67164 3.92192
C -4.35761 -1.51763 5.01184
C 4.97608 5.58087 1.99674
C 4.82006 5.59695 0.776393
C -3.67955 1.47094 5.52022
C -2.75856 1.65255 6.41251
C 4.57394 2.57184 -3.99555
C 5.25149 2.59536 -2.88596
C -0.274219 2.00692 6.67333
C -1.67637 1.89793 7.24716
C -5.72462 4.9615 -0.0460795
C -6.7069 4.65483 0.600764
C -4.06505 -0.280717 -5.27067
C -3.28843 0.355145 -6.13824
C -5.54846 1.42297 3.82896
C -4.6313 1.39759 4.69351
C 10.1045 2.54935 9.55933
C 10.8969 3.04786 10.1813
H -0.270513 6.45592 -2.33317
C -4.62908 3.36638 -3.97148
C -5.49141 2.99526 -3.11732
C -7.20167 1.36286 1.91618
C -6.3891 1.39342 2.89067
C 7.62122 0.904148 7.01269
C 6.91629 0.196111 6.18952
C -18.4563 -27.2795 17.215
C -17.9964 -26.5789 16.3235
C -20.3899 8.41329 4.95987
C -19.981 7.37279 5.45761
C 0.717229 5.36053 5.47617
C 0.170686 5.15969 4.38642
C -4.83181 -6.8063 0.659985
C -4.8031 -7.25525 1.7724
C -2.30557 -0.0357421 10.6438
C -2.52969 -0.564178 11.7096
C -6.14767 12.9406 -11.1382
C -5.37931 12.0072 -10.8096
C 2.84413 -3.89372 -8.31001
C 2.9657 -5.05783 -8.62773
H -8.55599 -2.27355 -2.26668
C 5.40794 5.68235 7.09377
C 5.39959 5.58006 5.80004
C 1.24007 5.38911 -7.82961
C 0.532848 6.22296 -8.21742
C 5.30585 5.53255 4.54722
C 5.08627 5.50074 3.29692
C 2.12956 5.46946 7.59528
C 1.4358 5.46562 6.51717
C -36.7518 21.6161 10.5993
C -35.6085 21.8372 10.3106
C 5.72277 5.63772 9.62362
C 5.54791 5.65316 8.35856
C 2.6029 3.49734 -6.82405
C 2.00034 4.36952 -7.29452
C 9.08052 1.97798 8.68074
C 8.36369 1.54973 7.87485
C 4.18181 5.77193 -1.66612
C 4.58958 5.61667 -0.476042
C 17.5459 20.4344 -1.54287
C 16.7501 19.6493 -1.02514
H 11.7104 3.36761 10.8753
C 17.8341 -39.4133 11.9959
C 18.4332 -38.3278 11.8747
C -11.049 16.1445 -25.0337
C -11.0137 14.9967 -24.6042
C -2.05855 0.619926 9.54123
C -1.85743 1.23335 8.48615
C 6.51408 -1.47203 0.458094
C 6.59133 -1.47367 -0.663019
C 5.92737 -1.40788 3.04481
C 6.16442 -1.51754 1.94979
C 6.64245 -1.00272 -5.89516
C 6.61137 -1.25441 -4.81326
C -30.3881 -35.2317 -33.3448
C -30.3923 -34.2 -33.9579
C -3.67869 3.77253 -4.81242
C -2.64155 4.19 -5.71918
C 3.98115 2.44757 -5.06684
C 3.33279 2.30468 -6.32733
C 2.15043 5.70364 -4.43684
C 1.09254 5.31468 -4.68188
H 13.2928 30.7118 -20.048
C 3.07641 0.96451 -6.78472
C 2.86504 -0.249655 -7.16229
C 12.9625 31.7555 -20.2239
C 12.6327 32.9324 -20.3852
C -2.93503 4.33877 -7.05755
C -3.16518 4.55523 -8.33265
C -0.191147 4.915 -4.95404
C -1.25438 4.60559 -5.28453
C -28.2783 7.62135 27.8705
C -27.1465 8.09131 27.5756
C -29.4048 7.02665 28.0899
C -30.4162 6.49051 28.4903
C -6.44767 8.82145 38.4701
C -5.38255 9.43418 38.5549
C -3.52133 10.4415 -10.2025
C -4.48761 11.2592 -10.4858
C 39.5373 -11.4214 2.29924
C 39.1314 -11.1522 3.39024
C 2.74841 -1.48741 -7.46186
C 2.79103 -2.69097 -7.8792
H 6.69715 -0.812683 -6.96396
C -2.76806 9.59275 -9.90471
C -1.91437 8.71328 -9.61278
C -18.1281 -11.6627 30.078
C -17.9708 -10.5805 30.5714
C -7.60782 14.8732 -11.8257
C -6.94042 13.8742 -11.4357
C 10.8045 12.6114 14.2875
C 10.8244 13.3112 15.2816
C 24.7447 26.6738 12.9035
C 25.2916 26.1235 13.8195
C -16.4398 -35.0833 -28.9696
C -16.8727 -33.9654 -29.1264
C 3.85045 30.2141 -22.3312
C 4.10972 30.6577 -23.4106
C -12.9089 0.521747 -2.13166
C -12.2298 1.25937 -2.80677
C -11.9536 29.8281 34.7049
C -11.6204 30.946 34.3756
C -23.9973 -11.4185 -21.0002
C -24.0609 -10.8274 -22.0973
H -36.4445 39.6236 13.6523
C -22.9186 14.571 -11.5981
C -23.8977 14.596 -10.7987
C 26.7701 2.27603 -0.508089
C 27.237 3.12048 0.227883
C 2.91193 -0.47107 9.46399
C 3.83032 -1.3019 9.49803
C -35.0681 -11.3067 18.4468
C -34.7333 -10.8843 17.301
C 15.1424 28.0018 12.4207
C 14.738 27.5799 11.3102
C 3.83673 3.05558 9.88633
C 2.85582 3.14112 10.7072
C 2.42913 18.5411 -0.255698
C 3.06105 18.4786 -1.38207
C -17.3961 34.8884 0.700123
C -16.9525 34.849 -0.433127
C 10.547 17.8668 -30.693
C 9.52423 17.1814 -30.4265
270
Atoms. Timestep: 80000
O 0.968282 0.745598 3.30837
O 1.9836 1.40852 2.54604
O -0.388969 1.17455 3.36836
O -0.800393 2.30798 2.633
O -1.25103 0.006 3.38995
O -2.47035 0.00682 2.63587
O -0.389893 -1.13939 3.38936
O -0.662993 -2.33181 2.62273
O 0.950255 -0.650579 3.41339
O 1.92947 -1.37398 2.66263