249
Atoms. Timestep: 0
O 0.965017 0.8275 3.40504
O 1.89514 1.5325 2.60378
O -0.425869 1.17656 3.41722
O -0.696025 2.29866 2.55081
O -1.25103 0.006 3.38995
O -2.47035 0.00682 2.63587
O -0.372125 -1.13341 3.4121
O -0.743131 -2.29732 2.5648
O 0.962481 -0.630301 3.34565
O 1.90726 -1.31165 2.58243
O 2.49111 0.113755 -2.41789
O 1.34442 0.0847316 -3.19455
O 0.81626 2.41469 -2.59471
O 0.473939 1.21216 -3.33459
O -1.81871 1.44632 -2.57771
O -0.884919 0.780748 -3.41934
O -1.76394 -1.36322 -2.62825
O -0.790251 -0.623809 -3.34793
O 0.879418 -2.25869 -2.54863
O 0.555568 -1.13739 -3.35397
O 2.9341 -0.589759 1.85648
O 2.88757 0.835211 1.85658
O 1.65177 2.74892 1.92212
O 0.25366 3.09186 1.86237
O -1.96935 2.32868 1.80122
O -2.84804 1.20242 1.85424
O -2.7706 -1.0537 1.75199
O -1.92997 -2.21352 1.7516
O 0.24848 -3.0825 1.86287
O 1.59949 -2.48707 1.85242
O 2.86792 1.26931 -1.67075
O 2.03768 2.3983 -1.81247
O -0.161569 3.05477 -1.79814
O -1.50798 2.62269 -1.8811
O -2.69408 0.673013 -1.76641
O -2.85112 -0.677149 -1.88945
O -1.45815 -2.5208 -1.88241
O -0.109775 -2.95112 -1.86189
O 2.13777 -2.20441 -1.80346
O 2.944 -1.02979 -1.73957
O 3.42259 0.823642 -0.475402
O 3.27854 1.56571 0.755368
O 0.343731 3.42459 -0.557178
O -0.372969 3.47027 0.622747
O -3.06929 1.39371 -0.63895
O -3.34229 0.772676 0.58801
O -2.30699 -2.53436 -0.679736
O -1.73121 -2.9121 0.565076
O 1.81869 -2.87063 -0.567764
O 2.43034 -2.53572 0.681228
O 3.24206 -1.39295 0.705853
O 3.49992 -0.626919 -0.470525
O 2.41253 2.71719 0.693809
O 1.7083 2.9885 -0.534933
O -1.72196 3.01377 0.574675
O -2.29911 2.60581 -0.674664
O -3.42709 -0.664077 0.532757
O -3.10759 -1.33316 -0.700601
O -0.370734 -3.3496 0.580878
O 0.451686 -3.33727 -0.596307
C 3.96921 0.245255 4.97517
C 3.2634 1.09517 5.78261
H -2.65046 -5.22565 -4.87208
C 25.9239 7.70735 -1.9693
C 26.6946 7.7056 -2.89821
C 0.824858 -3.85399 -5.407
C -0.296346 -3.37166 -5.62074
C 26.1388 13.0758 -23.656
C 26.6899 12.6438 -24.6538
C -2.46837 5.46988 -2.93221
C -2.25298 4.65063 -3.87373
C -2.96971 -5.21085 -3.81507
C -3.81381 -4.2872 -3.30793
C 2.62726 1.87352 6.34046
C 1.86394 2.82588 7.05352
C -1.54131 -2.77682 -5.78995
C -2.53741 -2.23015 -5.95022
C 9.423 -7.58097 -1.09192
C 9.88829 -8.46376 -1.62603
C 8.72805 -6.59331 -0.328598
C 8.16326 -5.63853 0.286058
C -13.4088 -11.0686 -17.5066
C -12.835 -10.3418 -16.6619
H 10.4911 -9.18555 -2.19259
C -3.83011 -1.55434 -6.17782
C -4.18054 -0.298068 -5.42107
C 7.54483 -4.78612 0.990991
C 6.90623 -4.00389 1.72507
C -2.82406 7.1444 -1.06544
C -2.64865 6.30734 -2.00826
C -0.27057 -20.0921 4.71679
C 0.200346 -20.2492 5.74961
C 3.87068 -16.0662 32.8438
C 4.61407 -16.2586 31.88
C -0.947389 -37.4735 31.4435
C -0.692729 -38.6253 31.1713
C -6.3465 -3.10261 -8.75924
C -7.21394 -3.6958 -9.53171
C -5.55999 -2.54483 -7.93654
C -4.77411 -2.05523 -7.0348
C 5.76262 -2.11122 2.91317
C 6.31813 -3.09975 2.29211
C -3.11513 8.03358 -0.070417
C -2.57589 7.4939 1.10931
H -3.98685 8.69108 -0.121784
C 1.42581 -20.5684 7.99048
C 0.923716 -20.4273 6.99175
C -2.20156 2.28172 7.29952
C -1.29404 1.30703 7.0416
C -1.62558 2.94285 -5.56601
C -1.94946 3.84957 -4.82818
C -5.16036 2.61021 -3.33375
C -5.54526 3.60793 -2.40267
C -0.440163 0.369847 6.93299
C 0.346166 -0.480869 6.72045
C -4.89937 1.70333 -3.98573
C -4.54969 0.548955 -4.7371
C -0.2471 -9.92113 -15.1375
C -1.44233 -10.0227 -15.0564
C -1.32634 1.07419 -7.1793
C -1.42863 2.02568 -6.35267
C -0.177428 5.07893 4.70147
C -0.813541 5.65503 3.88914
C 0.519909 4.40231 5.47403
C 1.16047 3.64507 6.25078
H -2.37692 2.58438 8.31882
C 14.5078 8.08193 33.5237
C 13.8192 7.49515 32.7413
C -1.46625 6.30407 3.01655
C -2.05965 6.94593 2.09121
C -6.45031 -0.748829 -1.03508
C -5.9512 -1.78113 -1.57646
C -4.71149 4.63897 1.64609
C -5.23131 4.99299 0.682754
C -8.76698 -5.00285 -10.917
C -7.92125 -4.35586 -10.1772
C -5.75591 4.38425 -1.58381
C -5.92528 5.36501 -0.550194
C -0.989552 -19.7677 3.58741
C -1.46911 -19.4176 2.50017
C 4.49233 -0.463913 4.21304
C 5.17059 -1.29298 3.47701
C -3.54209 3.76391 3.85407
C -4.00517 4.21329 2.74842
C -2.18025 -4.05614 -11.0186
C -2.48123 -4.96564 -11.6527
H 1.97006 -20.6171 8.93134
C 1.74915 -2.41959 5.93545
C 1.04522 -1.47824 6.33735
C -2.69263 2.86418 6.09106
C -3.10008 3.28297 4.93648
C -1.53047 -0.854896 -8.75607
C -1.37277 0.146672 -8.03967
C -18.1486 3.85569 34.3996
C -18.4693 4.2004 33.2538
C -29.9524 -13.2392 28.4774
C -31.1226 -13.2947 28.8361
C -2.15972 22.4721 14.0979
C -2.69874 22.0327 13.0835
C 33.9337 20.5702 20.184
C 35.0807 20.8648 20.3959
C -7.64402 8.92277 -0.878797
C -8.15568 10.0383 -0.923758
C 2.15465 -25.318 10.4933
C 3.34239 -25.4124 10.3568
C -22.2629 -0.423141 -26.3883
C -21.3074 0.210048 -26.777
H 1.74026 2.85457 8.12567
C -8.15728 3.5722 0.88356
C -7.77609 2.46219 0.429985
C -11.5519 -8.82183 -15.0539
C -12.1895 -9.57877 -15.8808
C -7.34524 1.43382 -0.0918058
C -6.93449 0.328273 -0.598771
C 32.3464 25.1715 25.5652
C 32.0117 24.9075 24.4201
C -3.86825 -19.5942 17.236
C -4.34654 -18.9779 16.3001
C -8.903 5.82566 1.67089
C -8.56063 4.66669 1.32206
C -10.5929 -7.45082 -13.1772
C -11.0873 -8.17957 -14.1934
C -1.95008 -2.96569 -10.1787
C -1.73538 -1.88394 -9.4907
C -4.63668 -3.44859 -2.8145
C -5.33911 -2.61946 -2.21138
C -24.634 16.1773 -16.5106
C -24.0895 17.1933 -16.8747
H -2.76226 -5.80119 -12.222
C 39.5473 23.8999 5.97668
C 39.3714 23.3713 4.89557
C -33.5942 28.6363 16.0953
C -32.9923 28.6872 17.1656
C -7.07156 7.69271 -0.772716
C -6.57595 6.65807 -0.7298
C 27.9915 11.6805 -26.5721
C 27.3721 12.0981 -25.5973
C 29.322 11.0005 -28.5483
C 28.6792 11.317 -27.5751
C 16.8396 -19.0139 18.6819
C 16.1329 -19.1069 19.7102
C 14.6038 27.6403 -18.138
C 13.5256 27.1829 -18.5059
C 2.48713 -3.39854 5.56622
C 3.29091 -4.36928 5.26711
C -9.48548 -5.80696 -11.5865
C -10.1156 -6.63013 -12.3193
C -2.40044 -6.03518 -2.76873
C -1.96995 -6.74613 -1.95198
H -37.8287 34.8772 4.8365
C -4.12801 6.99312 9.60355
C -3.22266 6.61067 8.87759
C -37.2664 35.6329 4.2273
C -36.6369 36.4924 3.603
C 4.03454 -5.34927 4.84987
C 4.7021 -6.20677 4.35325
C -1.44265 -7.52504 -1.04183
C -0.856572 -8.08729 -0.157145
C -14.6535 16.2015 28.6491
C -14.1814 15.0932 28.6229
C 11.6943 -15.8407 8.50697
C 12.0423 -14.698 8.55734
C -2.79719 -12.1529 -22.1497
C -2.79989 -11.6678 -23.2854
C 5.8515 -25.7199 10.4683
C 4.68523 -25.5172 10.3332
C -34.0897 8.30768 1.12449
C -33.3128 7.3805 1.12714
C -12.8061 -26.741 -10.9658
C -12.5388 -25.5909 -11.0018
H -16.5044 10.5887 1.83213
C -28.2339 35.9114 -24.8301
C -29.4806 35.8653 -24.9441
C 15.8117 33.7749 2.02255
C 16.8667 33.827 1.42337
C -15.1247 12.4801 -0.442985
C -15.7369 13.4363 -0.790288
C -27.4498 -8.06066 -4.53769
C -27.3864 -9.03122 -5.24878
C 37.1068 -24.817 -35.643
C 37.2687 -25.7663 -36.4322
C -22.7287 25.1708 -19.0552
C -23.5348 25.3582 -19.8877
C -22.6481 8.15876 -8.93461
C -23.8458 8.20477 -9.28338
C 38.0422 -4.12895 -5.99753
C 39.291 -4.17815 -5.78983
C -19.6963 36.8355 32.6347
C -19.7305 36.2808 33.7449
249
Atoms. Timestep: 20000
O 0.958952 0.691068 3.37328
O 1.9971 1.4312 2.69817
O -0.394577 1.14328 3.33533
O -0.703915 2.33148 2.61488
O -1.25103 0.006 3.38995
O -2.47035 0.00682 2.63587
O -0.434246 -1.12781 3.38936
O -0.674801 -2.3134 2.67456
O 0.921503 -0.772235 3.47142
O 1.92321 -1.43736 2.69896
O 2.59038 -0.0163206 -2.55307
O 1.3486 -0.0149516 -3.29618
O 0.888901 2.3302 -2.48612
O 0.498456 1.14118 -3.19041
O -1.80978 1.4248 -2.45987
O -0.841133 0.763576 -3.18757
O -1.84713 -1.42605 -2.47252
O -0.859767 -0.678128 -3.13742
O 0.780426 -2.302 -2.53048
O 0.477242 -1.15655 -3.25562
O 2.88233 -0.747729 1.86615
O 2.89268 0.69586 1.92513
O 1.65966 2.62017 1.98542
O 0.25366 3.09186 1.86237
O -1.93886 2.23613 1.88317
O -2.79175 1.10087 1.85053
O -2.85186 -1.16112 1.87935
O -1.87458 -2.22454 1.84316
O 0.24848 -3.0825 1.86287
O 1.62325 -2.59472 1.89279
O 2.84623 1.07291 -1.71148
O 2.0712 2.2608 -1.67556
O -0.128892 3.0442 -1.72524
O -1.50729 2.63546 -1.7413
O -2.87828 0.760899 -1.79695
O -2.7509 -0.606332 -1.73749
O -1.5443 -2.54787 -1.77191
O -0.201465 -3.07923 -1.82578
O 1.955 -2.3041 -1.78708
O 2.85794 -1.23301 -1.79976
O 3.49679 0.675481 -0.487123
O 3.20475 1.39123 0.708979
O 0.409942 3.49502 -0.526705
O -0.363344 3.56193 0.639415
O -3.1409 1.41874 -0.540414
O -3.47871 0.706632 0.677244
O -2.20814 -2.47044 -0.557494
O -1.69763 -2.98226 0.666118
O 1.73327 -3.05127 -0.554465
O 2.32831 -2.56378 0.667157
O 3.10443 -1.47816 0.661748
O 3.36783 -0.764033 -0.53289
O 2.35175 2.59309 0.729576
O 1.73433 3.03245 -0.471069
O -1.69851 2.98743 0.659761
O -2.33871 2.60603 -0.58616
O -3.44926 -0.695527 0.630084
O -3.09224 -1.31027 -0.552551
O -0.377235 -3.47951 0.623688
O 0.390093 -3.4314 -0.547048
C 3.58292 0.769896 5.83941
C 2.88888 1.71811 6.32033
H -5.25791 -5.16976 -3.72754
C 34.7125 4.95898 -9.31988
C 35.0759 5.81529 -10.0934
C 1.92723 -3.6586 -5.72623
C 0.727062 -3.62141 -5.73637
C 32.0474 7.54533 -33.3624
C 31.4451 8.21922 -32.5314
C -3.8263 3.76876 -3.58836
C -3.75476 2.89557 -4.51605
C -4.61297 -4.9243 -2.84323
C -5.01338 -4.09729 -1.7997
C 2.20839 2.64584 6.8777
C 1.38115 3.65684 7.32911
C -0.61217 -3.5906 -5.92414
C -1.7531 -3.38968 -5.94282
C 9.06328 -7.3948 0.107857
C 9.73917 -8.11878 -0.458884
C 8.3292 -6.48017 0.89087
C 7.72936 -5.61462 1.55557
C -11.7013 -6.42249 -20.9883
C -11.1223 -6.30334 -19.9194
H 10.3602 -8.8438 -0.974786
C -3.20284 -3.17672 -5.96682
C -4.00034 -2.37665 -5.05429
C 7.24733 -4.68124 2.17942
C 6.68171 -3.75041 2.88755
C -4.32301 5.31673 -1.62896
C -4.03587 4.49557 -2.5869
C -2.03753 -20.7562 -1.57113
C -1.32015 -20.8289 -0.672569
C 7.27527 -13.5046 29.4151
C 6.76778 -13.0528 28.3674
C -1.55727 -39.8841 24.8198
C -1.77537 -38.9927 25.619
C -4.90147 -4.76121 -9.19508
C -5.41734 -5.09142 -10.2349
C -4.2866 -4.31994 -8.04754
C -3.83857 -3.79879 -7.12228
C 5.4575 -2.05507 4.26531
C 6.10428 -2.86301 3.57854
C -4.59644 6.15925 -0.599973
C -3.70912 5.99819 0.476826
H -5.39175 6.89933 -0.676636
C 0.0709204 -20.6896 1.48444
C -0.467724 -20.7477 0.488793
C -2.57953 2.91504 7.54777
C -1.58854 1.93193 7.45402
C -3.3237 1.27624 -6.36104
C -3.52962 2.05778 -5.43493
C -5.76585 -0.0250171 -2.86115
C -6.15459 0.820329 -1.92338
C -0.708261 1.05012 7.25948
C 0.0552854 0.118063 6.95628
C -5.29113 -0.773544 -3.59961
C -4.63556 -1.65965 -4.40654
C -4.86571 0.879082 -12.2692
C -3.67636 1.08225 -12.2355
C -2.73762 -0.451775 -8.01513
C -2.99514 0.351679 -7.20773
C -0.770021 4.84748 4.36311
C -1.57802 5.29225 3.4814
C 0.0882752 4.4522 5.27126
C 0.712763 4.06329 6.17977
H -3.05659 3.39534 8.41457
C 15.2325 19.1655 26.9234
C 15.3675 19.9122 27.8608
C -2.24578 5.72491 2.4691
C -2.95016 5.84833 1.44083
C -6.72743 -1.01336 1.79368
C -6.34544 -1.76781 0.80747
C -5.95683 2.81006 2.19487
C -6.47463 2.69466 1.15549
C -6.38858 -5.62247 -12.5735
C -5.93735 -5.32047 -11.4114
C -6.52385 1.59257 -1.12616
C -7.06098 2.62015 -0.234175
C -2.93308 -20.6308 -2.5897
C -3.58658 -20.4487 -3.63537
C 4.23256 -0.182783 5.34755
C 4.86978 -1.2086 4.83492
C -4.62032 2.78093 4.25727
C -5.26958 2.85921 3.30687
C -2.68448 -4.59108 -12.9958
C -2.90526 -5.33278 -13.7975
H 0.701418 -20.6631 2.39432
C 1.44012 -1.84052 6.30783
C 0.752934 -0.815938 6.60052
C -3.25424 2.82124 6.36722
C -3.83586 2.73194 5.34884
C -2.41195 -2.08781 -9.82426
C -2.55306 -1.35467 -8.9319
C -10.3919 9.66787 -36.4472
C -9.86683 10.5628 -37.1069
C -30.9962 -13.6483 32.3938
C -30.7519 -12.5146 32.0938
C -0.36666 23.0598 16.0369
C -0.468621 22.9116 17.2111
C 31.9903 15.0738 20.0528
C 32.807 15.3992 19.2266
C -8.99795 5.57875 -1.87839
C -9.75468 6.32483 -2.45468
C -0.182421 -16.8365 1.34454
C -1.39416 -17.1846 1.36071
C -19.9413 1.31147 -26.1386
C -20.871 0.713948 -25.6464
H 1.40028 4.17579 8.35197
C -7.37223 1.30612 6.14854
C -7.3344 0.740043 5.01002
C -9.61018 -6.07184 -17.8389
C -10.3825 -6.17493 -18.8889
C -7.20614 0.144223 3.9331
C -6.97487 -0.432057 2.79598
C 30.5503 31.9091 36.7241
C 31.3577 31.1848 36.1771
C -1.26294 -22.3488 23.7937
C -2.09278 -22.8379 24.5056
C -7.31366 2.262 8.44656
C -7.35948 1.85975 7.30751
C -8.15269 -5.99968 -15.806
C -8.85953 -5.99496 -16.8559
C -2.47714 -3.61681 -11.8245
C -2.3898 -2.89412 -10.9524
C -5.40562 -3.32801 -0.909435
C -5.88873 -2.52029 -0.0479136
C -21.7605 22.2949 -22.5656
C -21.7365 23.4954 -22.4957
H -3.06964 -6.05079 -14.5729
C 35.4754 22.2562 3.71241
C 36.396 21.5188 3.50799
C 37.3392 25.5808 24.2689
C 36.7473 26.6117 24.0708
C -8.28563 4.69719 -1.28041
C -7.68247 3.729 -0.770462
C 30.135 9.40826 -30.8232
C 30.7697 8.79711 -31.6362
C 28.7126 10.9629 -29.383
C 29.4626 10.174 -29.9912
C 5.69285 -27.1667 13.8203
C 6.7091 -27.7015 13.3012
C 18.0462 24.4578 -11.7683
C 18.9417 24.9949 -11.1362
C 2.08383 -2.8731 6.0158
C 2.71631 -3.85246 5.62185
C -6.8745 -5.81685 -13.6768
C -7.48994 -5.93788 -14.8454
C -3.32613 -5.34361 -2.56849
C -2.14471 -5.7153 -2.30339
H -38.282 38.9152 5.68181
C 3.15527 6.34628 -1.74679
C 3.28592 6.48138 -0.569337
C -37.8607 39.2903 4.75965
C -37.5521 39.6241 3.59166
C 3.43198 -4.81601 5.06477
C 4.09968 -5.69603 4.56714
C -0.974004 -6.11689 -2.21099
C 0.149784 -6.57402 -2.00072
C -3.71672 18.717 30.5236
C -3.46779 19.4982 29.6376
C 3.9318 -18.5532 9.89508
C 4.98373 -18.7862 10.4049
C -11.73 -30.9175 -15.1983
C -12.137 -29.9029 -15.6981
C -3.88645 -17.7675 1.42093
C -2.69274 -17.4141 1.41941
C 33.3849 14.0287 -8.03565
C 33.0062 14.64 -9.01019
C -6.33012 -40.111 -21.3954
C -6.58557 38.6712 -21.376
H -32.6855 34.6116 8.71947
C -25.1036 37.1485 -23.7723
C -23.8891 36.9224 -23.9873
C 25.9423 33.2002 13.0018
C 24.8927 33.0153 13.5623
C -9.70071 -2.63825 1.08525
C -9.3825 -1.56875 0.598849
C 39.2574 -14.1169 -9.14322
C 39.1851 -15.2194 -9.59848
C -37.5768 -40.1673 37.7217
C -38.0913 -39.2809 38.4243
C -17.1949 32.9737 -24.9424
C -16.7628 31.7992 -24.5767
C -24.8048 4.5068 -11.9981
C -24.6536 5.05012 -10.8915
C -27.2793 1.0046 -8.98259
C -27.8954 1.35058 -10.0234
C -24.6954 33.5296 37.4414
C -24.7503 33.1978 38.6414
249
Atoms. Timestep: 40000
O 0.958932 0.765277 3.11041
O 1.98762 1.49597 2.42642
O -0.381706 1.15634 3.245
O -0.809515 2.34369 2.49845
O -1.25103 0.006 3.38995
O -2.47035 0.00682 2.63587
O -0.399336 -1.11584 3.31663
O -0.783866 -2.37666 2.62167
O 0.981968 -0.674 3.15653
O 1.89921 -1.36569 2.42263
O 2.1958 -0.0809019 -2.71334
O 0.889339 -0.130603 -3.36131
O 0.515337 2.15513 -2.56702
O 0.084796 1.05357 -3.31485
O -2.29867 1.31763 -2.48832
O -1.2827 0.637561 -3.27272
O -2.10483 -1.52133 -2.44945
O -1.22138 -0.804312 -3.30236
O 0.490251 -2.39717 -2.6104
O 0.0677388 -1.31597 -3.4242
O 2.81844 -0.645454 1.62447
O 2.86421 0.749458 1.60185
O 1.60582 2.64288 1.69131
O 0.25366 3.09186 1.86237
O -2.02648 2.27815 1.83763
O -2.84089 1.14273 1.91441
O -2.81978 -1.15649 1.92226
O -2.03494 -2.40454 1.93933
O 0.24848 -3.0825 1.86287
O 1.58707 -2.63186 1.81159
O 2.67965 1.05608 -2.07042
O 1.82598 2.18744 -1.98878
O -0.455084 2.87784 -1.87021
O -1.81898 2.46543 -1.77071
O -3.15943 0.625602 -1.57967
O -3.05747 -0.789474 -1.65936
O -1.78099 -2.76248 -1.784
O -0.403423 -3.1518 -1.79623
O 1.69201 -2.29531 -1.81273
O 2.61693 -1.22887 -1.95985
O 3.30523 0.677591 -0.814571
O 3.07389 1.45067 0.388256
O 0.285113 3.23736 -0.674237
O -0.391271 3.37629 0.583053
O -3.33841 1.40662 -0.458576
O -3.51701 0.678984 0.758421
O -2.41736 -2.65109 -0.536839
O -1.7835 -3.09006 0.648335
O 1.62765 -3.06307 -0.628012
O 2.27177 -2.6159 0.544421
O 3.09434 -1.47287 0.466503
O 3.25775 -0.740758 -0.76303
O 2.33858 2.68644 0.452301
O 1.63276 2.94477 -0.752539
O -1.80351 3.0214 0.656757
O -2.50358 2.59287 -0.499561
O -3.469 -0.748391 0.732488
O -3.22586 -1.50746 -0.45645
O -0.425312 -3.54559 0.649452
O 0.2657 -3.54509 -0.603536
C 3.19666 2.25079 5.44384
C 2.48039 3.2945 5.65396
H -9.08575 -4.24301 -2.1635
C -36.3207 2.49859 -16.9461
C -36.5629 3.6594 -17.117
C 0.343067 -6.34741 -3.73723
C -0.659965 -5.65952 -4.02987
C 31.5913 8.48411 -34.8063
C 32.1935 7.66586 -35.5259
C -5.65807 1.98106 -3.69007
C -5.26248 1.3654 -4.7828
C -8.00277 -4.39699 -2.15663
C -7.31579 -4.04891 -0.974543
C 1.74982 4.32304 5.86606
C 0.912184 5.3609 6.00768
C -1.63146 -4.88955 -4.18483
C -2.6765 -4.23871 -4.49459
C 7.06627 -7.97351 2.17025
C 7.43245 -8.95529 1.72273
C 6.58252 -6.6741 2.61085
C 6.35289 -5.60605 2.98426
C -3.85347 -6.99239 -22.0722
C -4.01202 -6.7658 -20.8894
H 7.76065 -9.90316 1.27808
C -3.82542 -3.55218 -4.86455
C -4.70676 -2.64639 -3.85767
C 5.92452 -4.42187 3.32003
C 5.42726 -3.24964 3.65415
C -6.37712 3.21097 -1.59109
C -6.06076 2.64435 -2.64475
C -3.92449 -15.8019 -5.92568
C -3.47776 -14.8819 -5.41639
C 10.3726 -10.619 25.2384
C 9.27351 -10.1247 25.547
C -2.58005 39.351 19.6517
C -2.45875 38.9719 18.513
C -4.63754 -4.46739 -8.50851
C -4.70444 -4.80828 -9.69484
C -4.3686 -4.1512 -7.28941
C -4.1693 -3.84894 -6.14602
C 4.68006 -1.11369 4.72433
C 5.0684 -2.19965 4.19962
C -6.93389 3.91171 -0.568944
C -5.85973 4.11231 0.337769
H -8.03664 4.08846 -0.365216
C -2.29995 -12.7821 -4.4716
C -2.85754 -13.6588 -4.92519
C 0.326788 0.986333 7.17221
C 0.642564 -0.225008 6.64733
C -4.36864 0.254666 -6.96594
C -4.88742 0.755967 -5.87742
C -6.39633 -0.69007 -1.10046
C -6.78264 0.139833 0.158902
C 0.838646 -1.39173 6.14013
C 1.23008 -2.48858 5.69327
C -5.94418 -1.25586 -1.9386
C -5.27999 -2.17273 -3.05325
C -6.24931 9.47248 -3.05553
C -5.43806 8.82432 -2.44136
C -3.30621 -0.705107 -9.03818
C -3.82209 -0.197729 -8.02538
C -2.29459 4.83015 3.75102
C -3.13959 4.68194 2.92169
C -1.27157 4.93741 4.5513
C -0.310532 5.19049 5.26937
H 0.995519 1.55545 7.88764
C 16.2588 31.753 22.049
C 16.6326 31.0145 21.1617
C -4.04984 4.51993 2.03845
C -5.02407 4.33673 1.16509
C -4.84586 -3.07137 3.26997
C -5.41306 -3.28008 2.18676
C -5.22002 2.00418 4.03178
C -6.20367 1.95375 3.21798
C -4.59261 -5.33071 -12.1089
C -4.66976 -5.06813 -10.9438
C -6.9615 0.839144 1.0015
C -7.24375 1.7876 2.26753
C -4.61452 -16.8687 -6.42951
C -5.17319 -17.8921 -6.80434
C 3.75497 1.13386 5.22693
C 4.23995 -0.0126067 5.01309
C -3.08727 2.00205 5.45275
C -4.22014 2.02054 4.85248
C -0.550164 -3.87468 -13.8356
C -0.124092 -4.41355 -14.7341
H -1.68187 -11.9987 -3.97191
C 1.84416 -4.69141 4.84655
C 1.51755 -3.60033 5.27928
C -0.859164 1.40279 6.56495
C -1.89607 1.77176 6.0284
C -2.33334 -1.87105 -10.9587
C -2.90586 -1.29547 -10.0184
C -2.33387 15.8991 -27.46
C -1.43384 16.6041 -27.1503
C -31.69 -12.5103 35.9243
C -30.7366 -13.2786 35.7952
C 1.22042 23.3595 19.9477
C 1.99989 24.0902 19.4155
C 30.3983 9.67789 19.5725
C 30.1472 9.74631 18.3976
C -10.457 3.86344 2.03971
C -11.609 4.36611 1.9354
C -8.49727 -18.6215 -8.95763
C -7.87553 -18.3225 -9.94902
C -19.422 1.90728 -24.8147
C -18.6101 2.37468 -25.5789
H 1.05186 6.21266 6.67522
C -2.38869 -1.79182 7.37953
C -3.01323 -2.12901 6.33288
C -4.26697 -6.41749 -18.3708
C -4.18632 -6.52278 -19.6386
C -3.62241 -2.39586 5.35926
C -4.28326 -2.74191 4.33462
C 29.2204 38.2865 -32.3115
C 30.2186 37.9256 -31.6883
C 0.190474 -25.8514 31.4623
C 1.35202 -26.0031 31.7192
C -1.00861 -1.08727 9.37173
C -1.73049 -1.42292 8.43175
C -4.45455 -5.90445 -15.8699
C -4.36084 -6.23274 -17.1131
C -1.16137 -3.11966 -12.7458
C -1.73441 -2.51611 -11.9485
C -6.67454 -3.76098 0.0385273
C -5.96303 -3.49485 1.11786
C -18.8036 28.7184 -28.6991
C -19.4245 29.5926 -28.1326
H 0.246063 -4.90617 -15.5796
C 31.9273 20.1988 1.38211
C 32.8401 20.0519 2.15702
C 27.4092 23.8968 32.2594
C 27.1946 23.1233 31.2807
C -9.40701 3.17332 2.19752
C -8.36015 2.51784 2.26081
C 33.5008 6.00106 -36.9226
C 32.8379 6.81241 -36.2623
C 34.7592 4.14912 -38.0736
C 34.2005 5.15092 -37.5127
C -3.76564 -36.3439 8.04513
C -4.56932 -35.4039 7.71363
C 23.2417 22.3049 -4.08717
C 22.6763 21.734 -4.96749
C 2.24506 -5.71957 4.34869
C 2.75597 -6.59271 3.73384
C -4.567 -5.48885 -13.417
C -4.50035 -5.64933 -14.6755
C -7.32517 -5.12966 -3.12227
C -6.70492 -5.80025 -4.02946
H -38.2407 -36.8194 6.12822
C 10.0429 12.8456 -8.56499
C 9.42111 13.4559 -9.4153
C -38.4593 -36.9645 5.06709
C -38.518 -37.2924 3.84395
C 3.35009 -7.56494 3.09744
C 3.95047 -8.49485 2.52134
C -5.96227 -6.54082 -4.79781
C -5.22463 -7.28929 -5.42616
C 7.65938 22.5642 31.0295
C 6.98093 22.6272 32.0441
C -3.06271 -21.5708 11.6759
C -3.2754 -22.7519 11.6943
C -20.8562 30.4852 -8.3765
C -21.4277 31.3971 -7.86324
C -6.59066 -17.6 -12.0072
C -7.19486 -17.8942 -10.9676
C 20.1685 20.7075 -18.8064
C 19.7852 20.9867 -17.7052
C -0.296847 23.9982 -31.8782
C -0.0894734 25.2195 -31.8646
H 31.0536 -21.7647 15.6025
C -19.5934 37.9358 -23.1454
C -20.5913 38.4394 -22.5864
C 34.0787 32.1144 25.1405
C 35.0592 32.7037 24.7282
C -2.88632 -11.8754 0.0999964
C -2.81544 -11.8283 -1.11281
C 25.8303 -20.2643 -13.744
C 25.6756 -21.4149 -14.025
C -33.2381 26.0907 32.4046
C -32.3931 25.3635 31.8679
C -10.939 39.0118 -30.292
C -10.6301 40.1275 -29.8851
C -23.4121 9.02055 -16.7962
C -22.8682 8.30273 -17.605
C -16.678 -0.700475 -9.12665
C -16.9496 -0.824105 -10.3539
C -29.7329 30.1359 -37.6819
C -29.8128 30.1509 -36.4542
249
Atoms. Timestep: 60000
O 1.02461 0.744623 3.34149
O 1.95216 1.46617 2.5668
O -0.361764 1.16907 3.43614
O -0.749649 2.31916 2.62752
O -1.25103 0.006 3.38995
O -2.47035 0.00682 2.63587
O -0.334489 -1.14729 3.32023
O -0.736666 -2.36129 2.66904
O 1.02222 -0.689983 3.37074
O 1.93848 -1.45052 2.6328
O 2.37273 -0.139291 -2.53642
O 1.15937 -0.142166 -3.26826
O 0.691921 2.11785 -2.51755
O 0.329844 1.0164 -3.28736
O -1.98977 1.26925 -2.51695
O -1.01559 0.585065 -3.29645
O -1.97563 -1.55663 -2.46524
O -1.03774 -0.836463 -3.21581
O 0.767753 -2.4382 -2.47738
O 0.326092 -1.27772 -3.20776
O 2.98725 -0.761662 1.89778
O 2.83862 0.653039 1.8283
O 1.6164 2.67724 1.88238
O 0.25366 3.09186 1.86237
O -1.95177 2.21979 1.83307
O -2.80408 1.15299 1.87363
O -2.93529 -1.21784 1.94595
O -2.0292 -2.33702 1.98105
O 0.24848 -3.0825 1.86287
O 1.60469 -2.63435 1.87359
O 2.73104 1.02585 -1.77372
O 1.85989 2.12034 -1.77188
O -0.301227 2.8901 -1.78177
O -1.64402 2.47344 -1.77428
O -2.99141 0.610201 -1.72467
O -2.98909 -0.85635 -1.79493
O -1.53932 -2.65385 -1.67668
O -0.198709 -3.22128 -1.7535
O 1.93423 -2.36467 -1.70461
O 2.86057 -1.28755 -1.77361
O 3.42455 0.688792 -0.567675
O 3.0818 1.36035 0.603276
O 0.340894 3.42134 -0.629429
O -0.386543 3.41363 0.613946
O -3.1738 1.34212 -0.535665
O -3.43724 0.686012 0.665926
O -2.36314 -2.64822 -0.516591
O -1.77438 -3.02129 0.726499
O 1.77052 -3.09087 -0.491969
O 2.35946 -2.61811 0.681926
O 3.21558 -1.49292 0.644011
O 3.44068 -0.764336 -0.58711
O 2.31493 2.52862 0.632345
O 1.68166 2.94923 -0.641885
O -1.7405 2.9547 0.679697
O -2.36132 2.54273 -0.523785
O -3.46682 -0.764306 0.702227
O -3.22976 -1.50361 -0.542025
O -0.432455 -3.47955 0.689469
O 0.388373 -3.54705 -0.490123
C 2.3657 1.79391 6.03147
C 1.48264 2.61101 6.43951
H -8.76338 -3.84949 -2.26461
C -27.2234 0.242341 -24.7534
C -27.8739 1.17726 -24.347
C -2.35298 -7.86444 -0.399687
C -2.5532 -7.01414 -1.24963
C 37.6308 1.20573 36.7536
C 36.9237 1.9995 37.3815
C -4.84829 1.68136 -3.31748
C -4.36462 0.96733 -4.23504
C -7.81253 -4.37648 -2.12396
C -6.99388 -4.26643 -1.01586
C 0.614243 3.42543 6.87956
C -0.313665 4.26181 7.48146
C -2.8806 -6.15137 -2.08886
C -3.23032 -5.39164 -2.94215
C 10.4603 -6.00591 4.34751
C 11.3188 -6.76489 4.22375
C 9.36119 -5.11442 4.4203
C 8.48278 -4.35863 4.52363
C -0.963766 -4.21657 -21.2558
C -1.29776 -4.09773 -20.0686
H 12.1952 -7.39361 4.11017
C -3.80232 -4.5806 -3.92127
C -4.65164 -3.43431 -3.29866
C 7.51366 -3.51185 4.6687
C 6.58268 -2.58676 4.70106
C -5.55112 3.48874 -1.82018
C -5.24081 2.5384 -2.40824
C -7.35067 -8.40222 -14.1315
C -6.83449 -7.41219 -14.4145
C 12.6604 -7.25694 21.2062
C 12.737 -7.51919 22.397
C -3.40996 37.8909 12.208
C -3.38013 37.5575 13.358
C -3.35143 -4.94366 -7.81053
C -3.1997 -5.04618 -9.08481
C -3.56544 -4.76595 -6.4964
C -3.69947 -4.77891 -5.33899
C 4.96411 -0.767805 4.99418
C 5.78179 -1.59776 4.81202
C -5.86329 4.60607 -1.08525
C -5.19734 4.76673 0.146975
H -6.52347 5.38624 -1.46691
C -5.9495 -5.14081 -15.1819
C -6.24206 -6.18578 -14.8467
C 0.0254491 0.204105 7.69132
C 0.684581 -0.81615 7.09704
C -3.3276 -0.332106 -6.01751
C -3.85994 0.302294 -5.15647
C -6.0652 -0.814869 -1.10226
C -6.39862 0.127868 0.0253746
C 1.37474 -1.72848 6.5656
C 1.89093 -2.6868 5.94199
C -5.79445 -1.53893 -1.90579
C -5.24355 -2.62068 -2.81177
C -6.6162 8.60659 11.2584
C -6.75502 7.56728 10.668
C -2.01952 -1.5717 -7.74083
C -2.64399 -0.921377 -6.8926
C -2.64661 5.03926 4.39634
C -3.32444 5.10374 3.44591
C -1.90067 4.89875 5.45713
C -1.1621 4.63298 6.45632
H 0.295887 0.64661 8.69816
C 17.9109 -36.8025 15.2607
C 17.3331 -36.1136 16.0705
C -3.9843 5.02386 2.33878
C -4.6094 4.93488 1.22663
C -4.13797 -3.87733 3.14539
C -4.86237 -3.96062 2.09171
C -5.00696 1.51652 3.9837
C -5.90873 1.69646 3.07264
C -3.0109 -4.91372 -11.4588
C -3.08201 -5.0019 -10.2718
C -6.58663 0.872128 0.849334
C -6.74908 1.84206 2.01904
C -7.95902 -9.59433 -13.8644
C -8.36996 -10.7186 -13.7662
C 3.17236 0.93241 5.62164
C 4.0556 0.0595755 5.19923
C -3.0026 1.11259 5.45542
C -4.04464 1.31939 4.82367
C 1.40043 -5.50201 -11.5187
C 1.77135 -6.31614 -12.2031
H -5.53666 -4.16604 -15.5889
C 2.86164 -4.45861 4.31908
C 2.37088 -3.62928 5.13545
C -1.03594 0.525745 6.8614
C -1.97563 0.835011 6.14348
C -0.533804 -2.92128 -9.16435
C -1.23185 -2.24216 -8.51798
C 6.21857 22.4805 -18.0775
C 6.94153 22.6218 -17.0898
C -30.9932 -12.6359 39.3892
C -32.13 -12.7692 39.7535
C 3.97907 24.7213 23.2905
C 3.4041 24.2459 22.3499
C 28.6624 4.18761 18.4286
C 27.5189 3.89555 18.1976
C -9.71439 4.18636 2.87456
C -10.4984 5.05605 3.27246
C -9.43688 -20.7561 -18.888
C -9.2407 -19.8832 -18.1035
C -17.5332 3.24291 -25.0785
C -17.6451 3.3553 -23.887
H -0.378619 4.4888 8.55772
C -1.40315 -3.29534 7.31095
C -1.9978 -3.29689 6.30029
C -1.92715 -4.03271 -17.6745
C -1.6167 -4.07484 -18.7949
C -2.69029 -3.44589 5.23634
C -3.41961 -3.64018 4.20432
C 28.1461 -35.1874 -20.6688
C 28.7585 -35.1353 -19.6211
C 3.64387 -29.6101 39.6285
C 2.9264 -29.0887 38.8289
C -0.173088 -3.15596 9.5154
C -0.787762 -3.26697 8.45453
C -2.50081 -4.25328 -15.2003
C -2.17317 -4.14632 -16.4276
C 0.708564 -4.6067 -10.5874
C 0.17367 -3.8985 -9.84919
C -6.25804 -4.13135 0.00728113
C -5.58605 -4.0535 1.03203
C -15.9805 35.8446 -34.7839
C -16.8394 35.3181 -34.1296
H 2.14931 -7.1408 -12.8462
C 31.825 16.9315 -0.752179
C 31.6102 17.8829 -0.0494916
C 16.9441 21.2107 39.2224
C 17.6416 20.526 39.8883
C -8.79721 3.3557 2.54548
C -7.84591 2.62004 2.29637
C 35.6354 3.91746 38.4164
C 36.2749 2.9955 37.9457
C 34.5366 5.9563 39.3576
C 35.0291 4.90005 38.8362
C -14.7448 35.7727 1.52059
C -14.8756 35.1534 2.57481
C 24.962 19.8634 2.5078
C 24.1627 20.4369 3.21545
C 3.317 -5.27068 3.49389
C 3.74528 -6.12372 2.74498
C -2.92741 -4.72332 -12.6847
C -2.74806 -4.4669 -13.9385
C -7.20236 -5.13989 -3.16145
C -6.74569 -5.75727 -4.04055
H -38.3475 -32.2273 4.95036
C 15.9535 20.1639 -16.6632
C 16.4039 19.1525 -17.162
C -38.9451 -33.1114 4.86606
C -39.6256 -34.154 4.75681
C 4.14862 -7.02619 1.92531
C 4.54176 -7.8883 1.1426
C -6.18969 -6.54516 -4.93554
C -5.68324 -7.28029 -5.76367
C 18.1779 26.2483 33.5406
C 18.8846 26.0781 32.5543
C -10.4864 -25.9327 13.516
C -11.5088 -25.5582 13.0058
C -30.535 11.9364 -1.19835
C -30.6529 11.6621 0.00288316
C -8.84292 -18.1207 -16.2839
C -9.03895 -19.0357 -17.1727
C 6.02791 27.9982 -28.317
C 6.7884 27.066 -28.1745
C 6.51677 10.0959 37.2459
C 5.95748 9.00178 37.4869
H 14.3545 0.369951 22.6685
C -15.7102 39.7559 -21.3676
C -15.4309 38.9835 -22.2836
C -36.0019 32.2839 37.0323
C -36.0733 31.0996 36.7573
C 3.29875 -14.7498 3.80196
C 4.09433 -14.7815 2.83638
C 11.9665 -26.6167 -18.2912
C 11.8903 -27.7319 -18.744
C -27.0932 10.581 25.9164
C -28.2354 11.006 26.1689
C -4.04623 -32.7286 -35.1337
C -4.80899 -33.3849 -35.9826
C -20.6385 13.1082 -23.843
C -21.2582 13.837 -23.0461
C -6.14493 -3.23304 -9.69437
C -6.6715 -3.8479 -8.83113
C -34.8995 26.4775 -32.5597
C -35.0135 27.1985 -31.537
249
Atoms. Timestep: 80000
O 1.00168 0.789119 3.228
O 1.96849 1.43196 2.44349
O -0.352689 1.1241 3.34685
O -0.685916 2.32925 2.6158
O -1.25103 0.006 3.38995
O -2.47035 0.00682 2.63587
O -0.350956 -1.11607 3.26122
O -0.76628 -2.33499 2.61837
O 0.971858 -0.62872 3.19997
O 1.98251 -1.42566 2.5789
O 2.24662 -0.168363 -2.65773
O 1.04935 -0.120657 -3.33236
O 0.654353 2.15707 -2.50052
O 0.217982 1.0793 -3.27503
O -2.08368 1.4111 -2.50627
O -1.16768 0.634498 -3.22054
O -2.04865 -1.48519 -2.4409
O -1.11733 -0.806693 -3.23506
O 0.614924 -2.45229 -2.52052
O 0.216514 -1.29386 -3.3262
O 2.94805 -0.769253 1.74452
O 3.00164 0.693804 1.77886
O 1.63428 2.65469 1.80129
O 0.25366 3.09186 1.86237
O -1.88423 2.1877 1.82081
O -2.80683 1.18978 1.91464
O -2.86211 -1.1771 2.00165
O -2.01248 -2.28676 1.92455
O 0.24848 -3.0825 1.86287
O 1.56849 -2.59518 1.83742
O 2.68596 0.972067 -1.90352
O 1.90288 2.17768 -1.8557
O -0.267273 2.90494 -1.77335
O -1.69368 2.59975 -1.78693
O -3.05602 0.677661 -1.71858
O -2.99698 -0.760425 -1.66722
O -1.73437 -2.67291 -1.7421
O -0.322597 -3.12012 -1.71792
O 1.8041 -2.42811 -1.76581
O 2.64741 -1.28939 -1.83255
O 3.33856 0.580175 -0.677552
O 3.12349 1.32727 0.518128
O 0.406458 3.38266 -0.596954
O -0.354938 3.45756 0.603674
O -3.24027 1.38961 -0.497047
O -3.38757 0.669957 0.684373
O -2.43762 -2.64961 -0.49515
O -1.77923 -2.98426 0.722573
O 1.65326 -3.15457 -0.521997
O 2.31262 -2.64516 0.631739
O 3.15497 -1.50176 0.564068
O 3.35889 -0.81587 -0.647684
O 2.37907 2.53599 0.538561
O 1.7646 2.88227 -0.633755
O -1.73749 2.98902 0.66313
O -2.34881 2.51929 -0.527854
O -3.43611 -0.792325 0.747136
O -3.19375 -1.44492 -0.484607
O -0.452932 -3.51056 0.722292
O 0.277305 -3.60864 -0.494638
C 2.97129 3.45553 5.17546
C 1.98532 4.23126 5.51335
H -7.90173 -4.74995 -4.88348
C -18.2476 -1.82855 -32.4806
C -19.0548 -1.48585 -31.6535
C -0.792658 -6.47141 -1.48013
C -1.45127 -5.9112 -2.3166
C 37.5132 3.26785 33.6675
C 37.9365 2.19836 33.3064
C -4.54529 2.10275 -4.49967
C -3.87991 1.32647 -5.17762
C -6.97607 -5.01866 -4.28907
C -6.67046 -4.64439 -2.98823
C 0.968293 4.79338 5.68792
C -0.278824 5.42599 5.70088
C -2.10254 -5.37128 -3.30388
C -2.75795 -4.67354 -4.1479
C 8.83275 -4.98529 0.587233
C 9.54141 -5.77031 0.207833
C 8.06273 -3.83827 1.13487
C 7.5808 -2.90882 1.63833
C -2.19109 -5.63631 -22.5426