102
Atoms. Timestep: 0
O 0.946888 0.773128 3.37129
O 1.9575 1.53403 2.74076
O -0.436939 1.16037 3.3318
O -0.728793 2.30049 2.56399
O -1.25103 0.006 3.38995
O -2.47035 0.00682 2.63587
O -0.411387 -1.12366 3.28578
O -0.710405 -2.2684 2.5555
O 0.956268 -0.664777 3.36768
O 1.93189 -1.45208 2.66584
O 2.53923 0.0513038 -2.46996
O 1.32738 0.084292 -3.19532
O 0.859899 2.49458 -2.46432
O 0.480241 1.26536 -3.1021
O -1.85975 1.48516 -2.47409
O -0.879086 0.827015 -3.20536
O -1.84344 -1.33076 -2.57855
O -0.874278 -0.599838 -3.26307
O 0.817685 -2.16816 -2.43875
O 0.484557 -1.07478 -3.23494
O 2.93278 -0.64117 2.0077
O 2.94464 0.781555 1.99336
O 1.59678 2.71993 1.96738
O 0.25366 3.09186 1.86237
O -1.95427 2.40278 1.94155
O -2.68244 1.19708 1.79055
O -2.71403 -1.11043 1.76801
O -1.899 -2.25621 1.77499
O 0.24848 -3.0825 1.86287
O 1.57212 -2.59821 1.89595
O 2.82592 1.21321 -1.59938
O 2.01679 2.3588 -1.61604
O -0.17811 3.17485 -1.75982
O -1.57355 2.70719 -1.77563
O -2.92887 0.824991 -1.81353
O -2.8584 -0.622812 -1.82745
O -1.51713 -2.51537 -1.81573
O -0.178522 -2.87513 -1.73124
O 2.03339 -2.21747 -1.71162
O 2.93955 -1.10409 -1.67429
O 3.48352 0.732548 -0.412928
O 3.12132 1.48634 0.739449
O 0.403108 3.46241 -0.464869
O -0.416792 3.4623 0.674785
O -3.15907 1.55369 -0.668177
O -3.27885 0.794068 0.535327
O -2.29091 -2.4526 -0.643395
O -1.68377 -2.93689 0.573512
O 1.80888 -3.0051 -0.537641
O 2.31167 -2.54533 0.708497
O 3.20964 -1.39011 0.823912
O 3.43025 -0.710815 -0.424979
O 2.35994 2.68084 0.730439
O 1.83374 3.11917 -0.428072
O -1.75537 3.10758 0.710678
O -2.32252 2.67825 -0.572013
O -3.34977 -0.66978 0.564694
O -3.16507 -1.34095 -0.638651
O -0.349001 -3.51166 0.603657
O 0.407448 -3.46211 -0.602605
C 1.98593 -6.3882 1.41008
C 2.64381 -6.48661 0.407658
H -23.4353 31.7491 18.5861
C -32.6792 -17.0276 -16.7307
C -32.9427 -17.9526 -16.011
C -34.1945 -10.008 -31.33
C -33.4811 -9.59589 -32.2102
C 15.5323 27.1478 -23.733
C 16.3361 26.4287 -24.2625
C -1.08141 -27.8802 -13.0488
C -1.7072 -27.7534 -14.0613
C -22.4811 32.1026 18.9707
C -21.4781 32.5345 19.4423
C 25.1075 13.0433 -26.4937
C 25.9996 13.6994 -26.9873
C -32.7315 -9.10037 -33.1375
C -31.9973 -8.65386 -33.974
C 4.49984 -31.9073 21.9146
C 5.22171 -31.9746 22.9037
C 3.80349 -31.8267 20.8266
C 3.15578 -31.6174 19.8495
C -12.8064 -26.7421 -10.9657
C -12.5385 -25.5898 -11.0019
H 3.68036 15.7893 10.275
C -28.2711 35.91 -24.8335
C -29.4434 35.8666 -24.9407
C 28.3242 17.27 1.0761
C 28.0544 18.4961 0.856755
C -29.9122 8.79708 11.7676
C -30.0142 7.85457 12.5209
C -6.20438 13.8204 -8.60484
C -5.37958 14.6048 -9.18713
C 37.1066 -24.8157 -35.642
C 37.269 -25.7675 -36.4332
C -22.7007 25.1644 -19.0264
C -23.5627 25.3647 -19.9166
C -22.6808 8.16001 -8.94412
C -23.8132 8.20351 -9.27387
C -28.04 -3.75079 4.73954
C -29.2413 -3.65508 4.81586
C -19.6964 36.8343 32.6373
C -19.7305 36.2821 33.7424
102
Atoms. Timestep: 20000
O 0.967598 0.768029 3.35225
O 1.96489 1.50779 2.66548
O -0.403523 1.19628 3.35717
O -0.734456 2.39761 2.62812
O -1.25103 0.006 3.38995
O -2.47035 0.00682 2.63587
O -0.416435 -1.10119 3.23963
O -0.763046 -2.3173 2.58845
O 0.958736 -0.664471 3.35161
O 1.88773 -1.40616 2.56597
O 2.50126 0.0970869 -2.46819
O 1.41038 0.089045 -3.41335
O 0.836021 2.38784 -2.49933
O 0.522465 1.22775 -3.26921
O -1.84392 1.45793 -2.5737
O -0.861935 0.757784 -3.27662
O -1.84461 -1.43336 -2.61997
O -0.818762 -0.652628 -3.28985
O 0.889473 -2.29316 -2.60163
O 0.535808 -1.10963 -3.42489
O 2.85655 -0.701174 1.90098
O 2.95234 0.73449 1.94991
O 1.64285 2.64381 1.93082
O 0.25366 3.09186 1.86237
O -1.94051 2.33511 1.86881
O -2.81492 1.17972 1.85873
O -2.75712 -1.14955 1.79646
O -1.92256 -2.30254 1.80136
O 0.24848 -3.0825 1.86287
O 1.54362 -2.56998 1.81774
O 2.89681 1.27984 -1.76732
O 2.04271 2.40641 -1.71558
O -0.117491 3.1096 -1.73477
O -1.49356 2.69119 -1.87392
O -2.83522 0.791726 -1.81805
O -2.77583 -0.62919 -1.85116
O -1.51491 -2.56301 -1.82546
O -0.141314 -2.94315 -1.80542
O 2.06544 -2.22523 -1.78242
O 2.87764 -1.05804 -1.73261
O 3.42414 0.760501 -0.542451
O 3.17234 1.44807 0.705207
O 0.520144 3.59617 -0.533064
O -0.294335 3.50608 0.634177
O -3.06994 1.54136 -0.658672
O -3.24691 0.787698 0.545285
O -2.24543 -2.54367 -0.662508
O -1.66177 -3.03375 0.579891
O 1.77501 -2.9847 -0.597071
O 2.43845 -2.58049 0.64802
O 3.12271 -1.34445 0.674449
O 3.44279 -0.642944 -0.560191
O 2.35825 2.66753 0.752973
O 1.84392 3.15351 -0.49548
O -1.65911 3.01847 0.652786
O -2.26745 2.67558 -0.620842
O -3.17646 -0.647967 0.555511
O -3.07233 -1.40393 -0.672421
O -0.330028 -3.49567 0.567128
O 0.425453 -3.4551 -0.64106
C 0.808896 -1.04071 6.56268
C -0.376565 -1.13538 6.8107
H -23.5949 33.7563 26.3657
C -24.5787 -18.2639 -27.0152
C -24.8853 -19.2589 -26.4259
C -39.899 -8.62125 -30.2889
C -40.0255 -9.82386 -30.1912
C 14.5322 14.2329 -25.8724
C 14.1239 13.7722 -24.8163
C -4.61111 -26.6326 -13.4902
C -5.79315 -26.8751 -13.5674
C -23.4986 34.7197 25.8788
C -23.434 35.7613 25.3245
C 32.4563 26.0018 -28.0878
C 33.426 26.5357 -28.6009
C 39.8595 -11.0589 -29.9242
C 39.6166 -12.2456 -29.6927
C 8.93753 -30.8159 24.1181
C 8.65777 -30.164 25.0818
C 9.22762 -31.6194 23.1374
C 9.32068 -32.3057 22.1732
C -15.2159 -23.8725 -11.871
C -14.9579 -23.3366 -10.8281
H -36.6583 -1.88607 33.6156
C -33.0515 33.3432 -28.3381
C -34.0984 32.6598 -28.087
C 36.5901 21.4087 0.0280613
C 36.1714 21.4622 -1.17607
C -31.0268 8.56711 20.2893
C -31.2566 7.72173 21.1064
C -10.1972 16.7185 -16.6549
C -9.59085 16.5115 -17.7593
C -39.3582 -22.5577 -39.9759
C -39.4967 -23.5031 39.2931
C -23.6325 25.1583 -27.6034
C -24.4408 25.5826 -28.4619
C -17.4596 0.621392 -7.1338
C -16.8 0.970687 -6.18492
C -33.0207 -1.48889 3.46278
C -33.5532 -0.596937 2.84265
C -21.214 32.2085 35.9863
C -20.8091 31.4558 35.1579
102
Atoms. Timestep: 40000
O 0.957985 0.690862 3.24894
O 1.95764 1.41468 2.51862
O -0.376893 1.14398 3.4086
O -0.695056 2.24742 2.49912
O -1.25103 0.006 3.38995
O -2.47035 0.00682 2.63587
O -0.414976 -1.1847 3.32002
O -0.787816 -2.34131 2.56156
O 0.961762 -0.719912 3.19183
O 1.94141 -1.41469 2.48811
O 2.4089 0.0701108 -2.5726
O 1.21519 0.0960908 -3.37001
O 0.685072 2.3763 -2.52497
O 0.340456 1.23786 -3.27836
O -1.93545 1.4914 -2.47268
O -0.960855 0.782443 -3.21775
O -1.93582 -1.3987 -2.44643
O -1.00578 -0.66043 -3.25996
O 0.76694 -2.16458 -2.53405
O 0.35046 -1.07581 -3.32306
O 2.95573 -0.664468 1.78896
O 3.06194 0.762256 1.83529
O 1.59186 2.65955 1.89084
O 0.25366 3.09186 1.86237
O -1.98437 2.35355 1.94177
O -2.83481 1.20468 1.94538
O -2.85497 -1.192 1.87507
O -2.04574 -2.39138 1.8406
O 0.24848 -3.0825 1.86287
O 1.53479 -2.54014 1.78582
O 2.77759 1.21576 -1.78562
O 1.90554 2.31017 -1.79953
O -0.249341 3.07955 -1.74956
O -1.62311 2.69129 -1.77129
O -2.84658 0.718885 -1.6957
O -2.97074 -0.69922 -1.75116
O -1.54662 -2.55173 -1.76878
O -0.203815 -2.9525 -1.79997
O 1.92927 -2.22942 -1.7639
O 2.81224 -1.11628 -1.85015
O 3.33835 0.747711 -0.564646
O 3.20924 1.49755 0.653414
O 0.3908 3.48676 -0.563108
O -0.330425 3.48922 0.672999
O -3.06845 1.44978 -0.48937
O -3.40233 0.781888 0.735339
O -2.36655 -2.6048 -0.593674
O -1.74183 -3.03198 0.622129
O 1.70817 -2.95538 -0.58507
O 2.30584 -2.52066 0.60741
O 3.24308 -1.4295 0.592133
O 3.4057 -0.697075 -0.598515
O 2.40971 2.67395 0.712084
O 1.79279 3.04232 -0.530339
O -1.71722 3.10206 0.711996
O -2.30968 2.61938 -0.496505
O -3.36552 -0.662566 0.729103
O -3.20586 -1.40056 -0.516299
O -0.388302 -3.38439 0.619752
O 0.385558 -3.47916 -0.574138
C -1.75321 5.73132 3.62495
C -1.10337 6.03836 4.60195
H -23.6009 38.1215 33.0337
C -16.4531 -19.5111 -37.3306
C -16.7987 -20.5628 -36.8794
C 33.7494 -12.8808 -28.3119
C 33.1613 -12.017 -27.6705
C 12.9707 0.629265 -26.5605
C 12.4624 1.71858 -26.8304
C -8.74331 -25.4949 -13.9988
C -9.30216 -25.8798 -13.006
C -24.484 38.1093 32.4102
C -25.4449 38.038 31.7219
C 40.0086 38.9255 -29.7253
C -38.9769 39.2891 -30.2439
C 32.5114 -11.0775 -27.0943
C 31.9918 -10.1806 -26.4304
C 13.3712 -30.2529 25.8432
C 12.6464 -29.2579 25.7464
C 14.3424 -31.0864 25.8966
C 15.3117 -31.8787 26.0706
C -17.4874 -20.6768 -12.2134
C -17.5314 -21.3923 -11.2194
H 2.8678 -19.6207 -22.9655
C -38.2653 30.7523 -31.7776
C -38.6761 29.662 -31.2585
C -35.4119 25.5815 -1.88209
C -35.3887 24.4181 -2.35712
C -32.1367 8.32723 28.8373
C -32.5116 7.59757 29.723
C -13.9274 19.558 -25.2124
C -14.0923 18.493 -25.8797
C -35.7963 -20.311 35.658
C -36.2662 -21.2124 35.0228
C -24.5874 25.1528 -36.2359
C -25.2951 25.8055 -37.0234
C -10.9991 -6.33021 -3.62987
C -10.9852 -6.8987 -4.77315
C -38.2511 1.23322 1.8624
C -37.6466 2.01884 1.18216
C -22.2053 26.5641 38.2737
C -22.4296 27.6117 37.6655
102
Atoms. Timestep: 60000
O 0.956348 0.687027 3.31861
O 1.94124 1.37755 2.60395
O -0.395521 1.16484 3.33759
O -0.725525 2.27864 2.53917
O -1.25103 0.006 3.38995
O -2.47035 0.00682 2.63587
O -0.381381 -1.14954 3.37314
O -0.672392 -2.29179 2.58364
O 1.00866 -0.748483 3.38054
O 1.95241 -1.49434 2.62104
O 2.37698 0.018866 -2.62936
O 1.07071 -0.0179466 -3.25916
O 0.623468 2.35634 -2.57349
O 0.278452 1.16386 -3.32931
O -2.10796 1.36368 -2.48882
O -1.07564 0.664721 -3.22831
O -2.0907 -1.48462 -2.54205
O -1.08587 -0.76789 -3.25989
O 0.691647 -2.27891 -2.49219
O 0.267472 -1.20849 -3.29181
O 2.89901 -0.751521 1.80085
O 2.89935 0.67309 1.82877
O 1.61589 2.61968 1.86276
O 0.25366 3.09186 1.86237
O -1.94976 2.32673 1.87227
O -2.79613 1.19551 1.8943
O -2.77263 -1.18446 1.87887
O -1.86849 -2.26462 1.87414
O 0.24848 -3.0825 1.86287
O 1.6077 -2.61275 1.80456
O 2.71917 1.16921 -1.82115
O 1.8189 2.23658 -1.78744
O -0.372224 3.02096 -1.74651
O -1.69584 2.52333 -1.81973
O -3.05749 0.657841 -1.7682
O -2.94198 -0.736721 -1.69613
O -1.62278 -2.57316 -1.72335
O -0.25991 -3.01248 -1.71112
O 1.92114 -2.34561 -1.7518
O 2.73799 -1.14021 -1.87639
O 3.31242 0.736015 -0.568293
O 3.17099 1.44097 0.671637
O 0.327523 3.45036 -0.568457
O -0.382892 3.48384 0.618399
O -3.27667 1.4034 -0.566315
O -3.45368 0.710909 0.67815
O -2.37424 -2.55398 -0.499033
O -1.7163 -3.06534 0.693336
O 1.72938 -3.02063 -0.523549
O 2.42045 -2.62557 0.593302
O 3.18247 -1.42223 0.56758
O 3.29059 -0.698611 -0.622536
O 2.30975 2.5862 0.617682
O 1.57631 2.85555 -0.560923
O -1.74101 3.04806 0.63661
O -2.37516 2.58357 -0.573293
O -3.37637 -0.71563 0.663438
O -3.23197 -1.46857 -0.545129
O -0.361468 -3.59001 0.676954
O 0.369297 -3.56363 -0.571403
C -1.65367 5.69771 -3.55638
C -2.38093 4.76925 -3.83969
H -25.7979 -37.5431 38.2707
C -8.30658 -20.7703 32.3273
C -8.68584 -21.8622 32.6331
C 24.6266 -12.9338 -23.3147
C 25.3865 -12.707 -24.242
C 10.6981 -11.5021 -27.6238
C 11.5026 -11.8821 -28.4773
C -14.1166 -25.0104 -11.7463
C -12.936 -24.733 -11.8183
C -26.157 -38.5392 38.4768
C -26.5932 -39.6272 38.7436
C -32.1102 -28.3887 -31.4367
C -31.0459 -28.1282 -31.9634
C 26.2005 -12.5925 -25.2196
C 26.9804 -12.3416 -26.1098
C 18.4825 -29.9296 27.6019
C 17.9719 -29.8731 26.4976
C 19.1034 -29.9655 28.7452
C 19.6989 -30.2716 29.7849
C -19.7831 -17.8609 -11.9686
C -20.0942 -19.0539 -12.2004
H -21.723 -31.347 -39.8407
C 36.1253 28.1898 -35.0699
C 36.4946 27.1029 -34.4558
C -27.3643 28.9702 -4.09222
C -26.9505 28.1788 -3.24721
C -33.2478 8.0659 37.4223
C -33.7724 7.49382 38.3525
C -17.7434 21.8741 -34.1393
C -18.532 21.0119 -33.6794
C -32.2124 -18.0903 31.2508
C -33.038 -18.8823 30.7683
C -31.0147 25.243 37.9066
C -30.5657 25.8264 38.8356
C -4.45516 -14.3304 -2.16934
C -5.21781 -13.7626 -1.30359
C 36.7818 4.27135 -0.0145838
C 37.9695 4.33416 -0.211241
C -18.566 22.4073 36.1671
C -18.8048 22.3592 37.3353
102
Atoms. Timestep: 80000
O 1.01983 0.735419 3.22134
O 1.99904 1.46828 2.48374
O -0.372156 1.1449 3.32973
O -0.749387 2.32262 2.57705
O -1.25103 0.006 3.38995
O -2.47035 0.00682 2.63587
O -0.339576 -1.09103 3.27156
O -0.749457 -2.23778 2.58501
O 0.945618 -0.645805 3.13941
O 1.93138 -1.47293 2.55114
O 2.33487 -0.0277381 -2.6713
O 1.0464 -0.0847652 -3.28953
O 0.718833 2.24592 -2.64271
O 0.294959 1.09104 -3.39485
O -2.01819 1.39731 -2.52109
O -1.08771 0.70668 -3.31008
O -2.18705 -1.44105 -2.60458
O -1.14432 -0.728592 -3.28467
O 0.673692 -2.34749 -2.58321
O 0.258703 -1.2218 -3.27726
O 2.89892 -0.765186 1.73895
O 2.84762 0.65975 1.71602
O 1.61935 2.58971 1.73399
O 0.25366 3.09186 1.86237
O -1.95079 2.2981 1.87765
O -2.86364 1.17154 1.89131
O -2.92204 -1.15323 1.88952
O -2.00065 -2.28821 1.86947
O 0.24848 -3.0825 1.86287
O 1.6117 -2.65264 1.77957
O 2.68075 1.15158 -1.89686
O 1.93059 2.29623 -1.86084
O -0.245303 2.91131 -1.84024
O -1.58343 2.5059 -1.75671
O -2.99633 0.688307 -1.69405
O -3.06444 -0.738944 -1.80275
O -1.67294 -2.54327 -1.85211
O -0.296427 -2.91518 -1.74091
O 1.93378 -2.3215 -1.9134
O 2.83679 -1.17395 -1.95759
O 3.28775 0.611931 -0.730981
O 3.04787 1.31859 0.504599
O 0.366509 3.42833 -0.635923
O -0.337287 3.43541 0.56318
O -3.1627 1.3534 -0.52774
O -3.41443 0.752842 0.667579
O -2.41626 -2.5714 -0.589831
O -1.68958 -2.84874 0.609824
O 1.67149 -2.96812 -0.64866
O 2.33772 -2.58872 0.517684
O 3.10699 -1.45283 0.558017
O 3.36916 -0.793693 -0.688235
O 2.352 2.58127 0.517217
O 1.78908 3.06801 -0.6847
O -1.69876 3.01536 0.700373
O -2.31351 2.51791 -0.510252
O -3.54728 -0.675522 0.665619
O -3.26986 -1.4041 -0.546719
O -0.373796 -3.34275 0.616588
O 0.32665 -3.39145 -0.586625
C 1.22315 -2.62994 -6.62394
C 0.211775 -2.00249 -6.81516
H -28.9837 -35.7131 -35.9544
C -0.119665 -22.0456 21.9325
C -0.526239 -23.1592 22.0868
C 19.2676 -12.0595 -22.6787
C 18.8494 -13.1857 -22.3041
C 9.53832 -24.2395 -29.8772
C 9.4126 -25.0147 -28.9486
C -17.7836 -24.0879 -9.13089
C -18.9268 -24.2416 -9.50988
C -28.1944 -35.9817 -35.2042
C -27.3259 -36.2764 -34.4578
C -24.1739 -15.6106 -33.1669
C -23.0854 -15.5023 -33.6825
C 18.5249 -14.3306 -21.8452
C 18.181 -15.4419 -21.3802
C 23.8772 -29.7841 29.9378
C 24.3871 -30.4437 29.0202
C 23.4334 -29.071 30.9329
C 23.2488 -28.2918 31.8598
C -22.2757 -15.7629 -11.8374
C -22.4805 -15.9757 -13.0713
H -39.1447 39.8747 5.70806
C 30.586 25.4231 -38.2678
C 31.5393 24.7206 -37.7822
C -19.0067 31.9142 -5.74699
C -18.734 32.4225 -4.70927
C -34.3672 7.77324 -33.9236
C -35.0375 7.41943 -32.9947
C -22.0345 23.6682 37.1102
C -22.5077 24.0604 38.1713
C -28.6406 -15.9382 26.7615
C -29.7612 -16.4594 26.5496
C -37.9181 25.863 35.0676
C -38.4698 24.9939 34.3748
C 0.765936 -21.3249 0.916467
C 1.93837 -21.7119 0.56711
C 32.1776 7.29374 -1.9256
C 33.1728 6.69391 -1.58813
C -13.5281 18.3671 34.4597
C -13.5259 17.2822 33.9241
102
Atoms. Timestep: 100000
O 0.971407 0.76737 3.30366
O 1.92522 1.45206 2.51572
O -0.405233 1.18713 3.38307
O -0.729124 2.31011 2.59388
O -1.25103 0.006 3.38995
O -2.47035 0.00682 2.63587
O -0.397796 -1.14315 3.3518
O -0.728083 -2.31845 2.5552
O 1.00942 -0.727352 3.36548
O 1.99996 -1.40761 2.62467
O 2.33998 -0.00592496 -2.43466
O 1.18209 0.00992204 -3.30644
O 0.696817 2.26217 -2.44443
O 0.308885 1.16363 -3.21309
O -1.89855 1.40447 -2.42675
O -1.02009 0.684507 -3.25677
O -1.99864 -1.38546 -2.51874
O -1.03785 -0.698075 -3.31729
O 0.679446 -2.30459 -2.52223
O 0.329912 -1.1544 -3.37702
O 2.9206 -0.688604 1.82236
O 2.9096 0.715401 1.77759
O 1.61383 2.67075 1.87631
O 0.25366 3.09186 1.86237
O -1.93412 2.26582 1.82312
O -2.8071 1.18937 1.91628
O -2.79157 -1.14586 1.89531
O -2.00948 -2.31906 1.96189
O 0.24848 -3.0825 1.86287
O 1.58407 -2.55336 1.90705
O 2.85948 1.14706 -1.79576
O 1.98946 2.29129 -1.79481
O -0.21618 2.97443 -1.66887
O -1.54532 2.58557 -1.70079
O -2.8789 0.723227 -1.66058
O -2.97079 -0.695705 -1.73053
O -1.66057 -2.60698 -1.77924
O -0.32191 -2.97894 -1.6954
O 1.91168 -2.36539 -1.81161
O 2.75308 -1.16518 -1.72482
O 3.50288 0.711662 -0.612556
O 3.23343 1.49023 0.618081
O 0.394686 3.53416 -0.517863
O -0.413362 3.51792 0.647383
O -3.25312 1.44772 -0.537317
O -3.45681 0.722065 0.700159
O -2.33548 -2.4763 -0.490493
O -1.76103 -2.99086 0.685395
O 1.69242 -3.00645 -0.545957
O 2.30905 -2.56687 0.639687
O 3.14194 -1.39228 0.594199
O 3.35673 -0.680245 -0.589392
O 2.34811 2.6449 0.644409
O 1.75422 3.05807 -0.604184
O -1.77856 3.03982 0.677855
O -2.37783 2.62489 -0.559118
O -3.52649 -0.726217 0.718316
O -3.19734 -1.35005 -0.490045
O -0.377776 -3.43348 0.670983
O 0.306252 -3.42911 -0.510073
C 1.49609 -6.30303 -0.58562
C 2.67954 -6.48245 -0.61893
H -30.1228 -34.6108 -28.2165
C 7.96844 -23.3135 11.661
C 7.54037 -24.4333 11.663
C 12.3248 -16.4722 -20.0364
C 11.9371 -15.3868 -19.658
C 8.2163 -37.8958 -30.8204
C 7.523 -36.9247 -30.6981
C -23.451 -23.4065 -7.39212
C -22.8055 -23.5232 -6.3831
C -29.5369 -33.6748 -28.3853
C -28.891 -32.6869 -28.4829
C -16.316 -3.02561 -34.8771
C -15.233 -2.98142 -35.381
C 11.4999 -14.2692 -19.2284
C 11.023 -13.28 -18.7329
C 29.0521 -29.2447 32.845
C 30.1023 -29.8961 32.9003
C 28.0754 -28.4098 32.6127
C 27.1756 -27.6196 32.4071
C -24.8549 -13.8043 -12.4261
C -24.7213 -12.8212 -13.2131
H 23.6547 31.2203 -28.3476
C 25.2444 22.4898 38.6924
C 26.5095 22.5653 38.8098
C -10.5637 35.1153 -6.70758
C -10.7974 36.3248 -6.82894
C -35.5024 7.51859 -25.3654
C -36.2589 7.31133 -24.4492
C -26.4513 25.7251 28.9789
C -26.2338 26.7735 29.5518
C -25.2173 -13.7908 22.3607
C -26.4161 -14.0853 22.3445
C 34.2011 24.7833 31.0059
C 34.7772 25.8635 31.2223
C 8.04192 -28.9106 3.38623
C 6.89443 -28.8945 2.9957
C 28.1037 10.1218 -3.75139
C 27.9559 9.18482 -3.01166
C -8.53634 12.7545 31.8785
C -8.34881 13.9004 31.4962
102
Atoms. Timestep: 120000
O 0.838759 0.667761 3.35157
O 1.91387 1.37624 2.7117
O -0.426229 1.19093 3.40485
O -0.693038 2.36256 2.66223
O -1.25103 0.006 3.38995
O -2.47035 0.00682 2.63587
O -0.436766 -1.20732 3.31156
O -0.774669 -2.33574 2.54688
O 0.890943 -0.745662 3.32747
O 1.95709 -1.43758 2.65313
O 2.51903 0.00474848 -2.49285
O 1.35185 -0.041573 -3.27253
O 0.764364 2.22432 -2.44271
O 0.4287 1.04856 -3.20455
O -1.86932 1.42346 -2.55433
O -0.95042 0.606769 -3.28497
O -1.88336 -1.4764 -2.56168
O -0.891799 -0.796629 -3.27152
O 0.834095 -2.35077 -2.60485
O 0.518635 -1.18765 -3.36616
O 2.94207 -0.734115 1.88625
O 2.93639 0.687842 1.98676
O 1.60775 2.56873 1.93477
O 0.25366 3.09186 1.86237
O -1.8771 2.24317 1.81573
O -2.73753 1.17687 1.86928
O -2.7925 -1.13826 1.81747
O -2.02951 -2.36822 1.83441
O 0.24848 -3.0825 1.86287
O 1.5959 -2.60138 1.87658
O 2.86949 1.1721 -1.71736
O 2.00125 2.34127 -1.69419
O -0.131592 2.9751 -1.67152
O -1.45911 2.5513 -1.70511
O -2.83748 0.68118 -1.81067
O -2.87299 -0.713954 -1.82037
O -1.53248 -2.65593 -1.76675
O -0.178419 -3.03529 -1.83057
O 2.0321 -2.31808 -1.79491
O 2.89144 -1.19183 -1.80216
O 3.4289 0.715664 -0.467856
O 3.11797 1.43 0.779529
O 0.46431 3.55629 -0.548171
O -0.334569 3.56039 0.622522
O -3.13624 1.43132 -0.582378
O -3.30195 0.757468 0.656814
O -2.30555 -2.5836 -0.603647
O -1.73924 -3.07713 0.602597
O 1.70706 -2.9895 -0.565386
O 2.28656 -2.54436 0.6422
O 3.19485 -1.43321 0.667855
O 3.46013 -0.724544 -0.539944
O 2.35669 2.65318 0.711233
O 1.80245 3.1507 -0.543874
O -1.67794 3.03483 0.636331
O -2.32701 2.6088 -0.592772
O -3.32056 -0.654646 0.583401
O -3.1455 -1.35136 -0.606691
O -0.351333 -3.49999 0.617965
O 0.414252 -3.43337 -0.594763
C 1.42968 -3.18919 5.94955
C 0.58622 -2.56554 6.54099
H -29.7778 -31.1969 -20.888
C 16.0192 -24.6037 1.42309
C 15.5843 -25.7152 1.25521
C 3.55342 -15.8342 -15.3489
C 4.24673 -15.9012 -16.3258
C 5.94918 29.8322 -31.5999
C 6.5895 29.8685 -32.6021
C -28.0203 -22.9424 -3.89492
C -27.7497 -22.5923 -5.03142
C -30.3924 -30.6139 -21.6367
C -31.0573 -30.0659 -22.4493
C -8.49684 9.503 -36.5742
C -7.39566 9.50982 -37.081
C 5.08757 -15.994 -17.3042
C 5.95504 -16.0545 -18.1603
C 33.762 -28.2129 35.52
C 34.3607 -28.1481 36.5774
C 33.1388 -28.2119 34.388
C 32.5363 -28.1851 33.263
C -27.3505 -11.3194 -13.4208
C -27.0292 -10.2108 -12.9464
H 6.51311 22.5954 17.7134
C 20.2741 19.61 35.6841
C 21.1439 20.3739 35.3925
C -2.30532 39.1948 -7.70676
C -2.7323 39.3243 -8.89946
C -36.6457 7.27338 -16.8301
C -37.4641 7.19504 -15.9394
C -30.7534 28.1504 21.0477
C -30.0466 29.1018 20.7897
C -21.8576 -11.6364 17.996
C -23.0308 -11.7338 18.1328
C 27.4315 25.7419 27.3603
C 26.9632 24.6957 27.6783
C 13.2951 -36.4372 5.1491
C 13.836 -36.047 6.13565
C 23.9841 12.3865 -5.1373
C 22.8166 12.2208 -4.86395
C -3.24267 9.16094 28.6802
C -3.5085 8.53031 29.7025
102
Atoms. Timestep: 140000
O 0.960915 0.672173 3.36893
O 1.90596 1.34343 2.59434
O -0.380304 1.14444 3.30472
O -0.733413 2.31666 2.55725
O -1.25103 0.006 3.38995
O -2.47035 0.00682 2.63587
O -0.436549 -1.18257 3.40083
O -0.733151 -2.32337 2.59596
O 0.953664 -0.790087 3.41708
O 1.92034 -1.45859 2.62183
O 2.57443 0.0504103 -2.57848
O 1.37552 -0.0297952 -3.40526
O 0.915567 2.24141 -2.53473
O 0.549189 1.1195 -3.35062
O -1.86224 1.40259 -2.66677
O -0.829261 0.684692 -3.34022
O -1.81252 -1.47497 -2.63014
O -0.821472 -0.727369 -3.34153
O 0.834675 -2.37949 -2.63043
O 0.508744 -1.1838 -3.37702
O 2.90957 -0.783085 1.80574
O 2.90402 0.638141 1.89632
O 1.62258 2.57915 1.88318
O 0.25366 3.09186 1.86237
O -1.90694 2.28304 1.75233
O -2.72207 1.11219 1.71347
O -2.73371 -1.11908 1.79903
O -1.87285 -2.23866 1.75275
O 0.24848 -3.0825 1.86287
O 1.59816 -2.57407 1.87788
O 2.98939 1.13367 -1.78249
O 2.0975 2.22832 -1.72971
O -0.0942062 2.95579 -1.81841
O -1.44031 2.51267 -1.90455
O -2.83808 0.718815 -1.97694
O -2.84838 -0.71504 -1.94661
O -1.52984 -2.69208 -1.90495
O -0.133041 -3.11535 -1.88405
O 2.01291 -2.31543 -1.83296
O 2.83647 -1.1505 -1.84328
O 3.4406 0.676176 -0.542186
O 3.26488 1.39567 0.671718
O 0.43178 3.44588 -0.55766
O -0.365119 3.44716 0.639759
O -3.10051 1.41485 -0.73062
O -3.24049 0.676653 0.455779
O -2.33015 -2.61171 -0.661659
O -1.68451 -2.981 0.552026
O 1.77966 -3.04983 -0.623636
O 2.29845 -2.63236 0.642198
O 3.19879 -1.54218 0.703607
O 3.40082 -0.784919 -0.544672
O 2.37142 2.54455 0.718514
O 1.78196 2.93738 -0.517237
O -1.69538 3.00963 0.531354
O -2.27649 2.58943 -0.713255
O -3.28148 -0.735144 0.502044
O -3.05382 -1.40007 -0.709293
O -0.381621 -3.45799 0.614647
O 0.395461 -3.5076 -0.59593
C -0.461495 3.63201 5.74614
C -1.4001 2.98904 6.14943
H -31.0681 -26.2838 -15.3877
C 24.1273 -25.9299 -8.90232
C 23.7013 -27.0079 -9.2467
C -1.62039 -15.5578 -15.0444
C -2.03041 -16.5161 -14.4074
C 4.5526 17.5026 -33.7784
C 4.75542 16.5085 -33.1322
C -32.2542 -21.8744 -2.39388
C -33.1082 -22.2537 -1.64333
C -31.7795 -27.0982 -15.4602
C -32.5797 -27.9759 -15.579
C -0.607346 22.1672 -38.2906
C 0.504806 22.0726 -38.787
C -2.58309 -17.5838 -13.82
C -3.09744 -18.5381 -13.2638
C 38.225 -27.1015 37.6327
C 37.7421 -26.4085 38.5261
C 38.5757 -27.9723 36.7391
C 38.8082 -28.8436 35.9085
C -29.691 -8.20906 -14.1608
C -29.532 -8.18335 -12.9406
H -10.7707 13.8989 -16.5075
C 15.3714 16.881 32.5729
C 15.6249 17.9896 32.0246
C 5.71779 -36.6188 -9.57182
C 5.70362 -37.7243 -10.1296
C -37.8026 6.99735 -8.19976
C -38.6751 7.10657 -7.38299
C -34.8224 31.0114 12.9987
C -34.1599 31.0339 12.0066
C -18.4681 -9.51036 13.5578
C -19.6191 -9.3165 13.9235
C 19.6761 24.6484 24.2669
C 20.0139 25.5782 23.5226
C 19.5841 36.6445 8.62543
C 19.8463 36.0958 7.61306
C 19.191 14.6401 -6.43179
C 18.2738 15.3121 -6.83454
C 1.64537 4.57449 27.2343
C 1.82159 4.07874 26.115
102
Atoms. Timestep: 160000
O 0.981477 0.718216 3.39323
O 1.96216 1.48843 2.64884
O -0.369199 1.1742 3.41528
O -0.674788 2.36532 2.63297
O -1.25103 0.006 3.38995
O -2.47035 0.00682 2.63587
O -0.422028 -1.16583 3.34352
O -0.760211 -2.32004 2.55262
O 0.92465 -0.675286 3.27033
O 1.93223 -1.39158 2.609
O 2.5657 0.00718854 -2.42234
O 1.36395 -0.0308815 -3.13414
O 0.823509 2.30874 -2.47635
O 0.488755 1.14764 -3.23457
O -1.88915 1.45321 -2.48409
O -0.888236 0.749755 -3.19872
O -1.83232 -1.49823 -2.53244
O -0.823889 -0.724472 -3.1731
O 0.868862 -2.36514 -2.40211
O 0.512167 -1.14659 -3.0731
O 2.92535 -0.654811 1.89643
O 2.98396 0.7906 1.92292
O 1.60998 2.62231 1.84004
O 0.25366 3.09186 1.86237
O -1.89751 2.2813 1.87505
O -2.73606 1.15677 1.87125
O -2.77289 -1.19311 1.83712
O -1.95683 -2.33416 1.78101
O 0.24848 -3.0825 1.86287
O 1.6265 -2.54589 1.85377
O 2.84225 1.11832 -1.65488
O 2.04523 2.34739 -1.76594
O -0.14329 3.03312 -1.774
O -1.52166 2.62301 -1.79429
O -2.89474 0.70416 -1.80857
O -2.76377 -0.740645 -1.83
O -1.52284 -2.64781 -1.77625
O -0.153054 -3.0696 -1.73198
O 2.12171 -2.32939 -1.68391
O 2.90238 -1.1355 -1.6595
O 3.4979 0.732707 -0.452199
O 3.26129 1.4177 0.743026
O 0.421311 3.57076 -0.563762
O -0.377361 3.5464 0.640499
O -3.13642 1.36761 -0.548848
O -3.36645 0.705307 0.705616
O -2.30316 -2.65566 -0.642003
O -1.73864 -3.12851 0.603143
O 1.82208 -3.04884 -0.485747
O 2.46604 -2.57763 0.71264
O 3.29439 -1.4202 0.765073
O 3.5293 -0.743963 -0.428658
O 2.43783 2.55673 0.638658
O 1.76703 3.03323 -0.544202
O -1.65254 2.94029 0.618898
O -2.2963 2.56838 -0.564529
O -3.27846 -0.719628 0.588522
O -3.08668 -1.43085 -0.649088
O -0.364354 -3.52848 0.663109
O 0.435478 -3.49081 -0.494138
C -1.86224 7.34935 -0.130297
C -2.38223 6.5502 0.618761
H -34.3436 -23.6039 -10.0204
C 32.2453 -27.2709 -19.25
C 31.838 -28.2905 -19.7644
C -8.99448 -19.9271 -11.8711
C -9.22531 -18.7841 -11.595
C 3.4295 3.76321 -35.088
C 2.61525 4.52192 -34.5603
C -38.0653 -21.5108 0.525433
C -36.9071 -21.2082 0.335407
C -33.8138 -24.2631 -9.36332
C -33.2938 -25.0068 -8.5932
C 7.32587 34.8571 -40.0061
C 8.41705 34.6451 39.5241
C -9.4802 -17.5161 -11.3516
C -9.85683 -16.3885 -11.0949
C -37.198 -26.5369 39.3355
C -38.1317 -25.7624 39.071
C -36.3316 -27.3847 39.5962
C -35.3988 -28.2052 39.8782
C -31.9463 -5.08703 -14.1996
C -32.1289 -6.15825 -13.6371
H -28.086 5.18642 29.2093
C 10.5527 14.378 29.3468
C 10.0028 15.37 28.7599
C 13.7605 -33.1722 -11.7746
C 14.1499 -34.02 -11.0276
C -38.9684 6.71651 0.456109
C -39.8816 7.02225 1.17917
C -38.5678 33.8871 4.43799
C -38.6117 32.9601 3.70468
C -15.1408 -7.38806 9.11781
C -16.1329 -6.88716 9.70014
C 12.5562 25.3404 19.7377
C 12.4023 24.6747 20.7893
C 26.3102 28.7057 10.2282
C 25.4419 29.2321 10.973
C 14.0417 17.178 -7.90098
C 14.0704 18.1287 -8.63638
C 6.81008 -0.789509 24.0772
C 6.89364 0.38823 24.2294
102
Atoms. Timestep: 180000
O 0.959564 0.6743 3.37425
O 1.8864 1.42875 2.60402
O -0.384677 1.16391 3.43706
O -0.66408 2.29256 2.58021
O -1.25103 0.006 3.38995
O -2.47035 0.00682 2.63587
O -0.377193 -1.17621 3.36722
O -0.744729 -2.33954 2.61054
O 0.987661 -0.736821 3.3397
O 1.95422 -1.45015 2.60579
O 2.51153 0.0170061 -2.57075
O 1.27025 0.0250214 -3.33028
O 0.791444 2.34307 -2.5746
O 0.387059 1.13281 -3.25354
O -1.95235 1.5119 -2.54028
O -1.02026 0.809569 -3.3446
O -1.94584 -1.37988 -2.55223
O -0.996793 -0.608557 -3.25566
O 0.774454 -2.21643 -2.44712
O 0.398225 -1.12234 -3.27817
O 2.91045 -0.763236 1.86317
O 2.83149 0.663907 1.84156
O 1.59501 2.59961 1.88902
O 0.25366 3.09186 1.86237
O -1.91258 2.25842 1.88818
O -2.78366 1.13642 1.85252
O -2.79972 -1.16561 1.89129
O -1.90964 -2.2893 1.82707
O 0.24848 -3.0825 1.86287
O 1.60242 -2.5606 1.84895
O 2.78325 1.22006 -1.8094
O 1.95466 2.35463 -1.76257
O -0.175913 3.0803 -1.81812
O -1.52856 2.58165 -1.7582
O -2.76973 0.693601 -1.74368
O -2.92806 -0.70242 -1.79045
O -1.62971 -2.52068 -1.8277
O -0.242938 -2.92141 -1.70295
O 1.96596 -2.33469 -1.7666
O 2.85103 -1.16092 -1.74918
O 3.37812 0.734507 -0.60698
O 3.11995 1.38843 0.605324
O 0.352905 3.57488 -0.579183
O -0.374457 3.51828 0.677044
O -3.13424 1.44934 -0.600523
O -3.37515 0.67958 0.618691
O -2.38278 -2.57221 -0.596246
O -1.69635 -2.95493 0.599407
O 1.76164 -3.06884 -0.580777
O 2.33691 -2.55103 0.634085
O 3.24002 -1.39534 0.58899
O 3.52625 -0.712077 -0.588623
O 2.30059 2.56908 0.619753
O 1.67907 3.02924 -0.559993
O -1.71492 3.0466 0.703035
O -2.3035 2.63105 -0.542279
O -3.39128 -0.752059 0.661217
O -3.20784 -1.41362 -0.619564
O -0.357713 -3.52761 0.61655
O 0.375365 -3.50916 -0.541857
C -1.71327 4.08256 -5.16614
C -1.82101 2.92355 -5.48931
H -36.3553 -22.602 -2.88368
C -39.6209 -28.6283 -29.6306
C 40.0009 -29.5636 -30.303
C -17.6386 -18.6791 -7.44772
C -16.8807 -19.1029 -8.34776
C 1.17141 -8.96326 -35.6612
C 1.6016 -8.54402 -36.7321
C 38.2677 -20.5733 3.06288
C 37.1257 -20.7331 2.70808
C -35.46 -22.0132 -2.6291
C -34.5104 -21.2961 -2.35767
C 15.2841 -32.4124 38.2706
C 16.3453 -32.7578 37.834
C -16.0484 -19.4506 -9.28583
C -15.2877 -19.8146 -10.1807
C -32.184 -26.4179 -38.8034
C -32.4858 -26.3102 39.9882
C -31.6502 -26.385 -37.6649
C -31.1006 -26.3331 -36.541
C -34.3171 -2.5948 -13.9108
C -34.6229 -3.49006 -14.6632
H 34.5512 -3.52597 -5.16623
C 5.59757 12.0623 25.9956
C 4.49018 12.5499 25.6034
C 22.0734 -30.2332 -13.4926
C 22.3688 -29.7898 -12.4185
C 39.8484 6.42965 9.15239
C 38.9234 6.9411 9.74575
C 37.6711 36.2764 -4.56226
C 36.9309 35.3851 -4.20136
C -11.8934 -5.2382 4.70021
C -12.5493 -4.47362 5.43198
C 5.11398 24.7433 17.2033
C 5.07491 25.0599 16.0426
C 31.4462 21.715 13.2021
C 32.6596 21.3821 12.9748
C 8.92116 20.0454 -9.62779
C 9.81393 20.6297 -10.1891
C 12.1142 -4.40743 21.1333
C 11.8527 -5.07177 22.1176
102
Atoms. Timestep: 200000
O 0.968869 0.724918 3.38417
O 1.9605 1.44269 2.56464
O -0.370255 1.20035 3.41759
O -0.740045 2.3507 2.6301
O -1.25103 0.006 3.38995
O -2.47035 0.00682 2.63587
O -0.36634 -1.14125 3.26376
O -0.72998 -2.29285 2.5443
O 0.959393 -0.64349 3.24827
O 1.89211 -1.42413 2.60226
O 2.24235 0.0980973 -2.53617
O 1.02739 0.0761518 -3.25943
O 0.620698 2.36193 -2.50494
O 0.225815 1.25185 -3.34047
O -2.00497 1.52151 -2.516
O -1.13684 0.737016 -3.33537
O -2.09959 -1.36397 -2.56829
O -1.11977 -0.681236 -3.34886
O 0.608793 -2.27499 -2.58233
O 0.199656 -1.10864 -3.32227
O 2.95133 -0.744121 1.87241
O 2.97718 0.722459 1.85854
O 1.60562 2.59946 1.81975
O 0.25366 3.09186 1.86237
O -2.00936 2.30683 1.93592
O -2.8729 1.14945 1.9097
O -2.80139 -1.13556 1.7971
O -1.97341 -2.30048 1.87345
O 0.24848 -3.0825 1.86287
O 1.57417 -2.59763 1.85722
O 2.73406 1.2454 -1.82623
O 1.88148 2.37505 -1.78348
O -0.337717 3.10843 -1.73109
O -1.6674 2.64848 -1.72572
O -2.95915 0.811729 -1.7797
O -3.01193 -0.626452 -1.79243
O -1.69002 -2.53515 -1.8107
O -0.330914 -3.07096 -1.89541
O 1.8656 -2.20959 -1.82722
O 2.69054 -1.07031 -1.85723
O 3.42268 0.769683 -0.634334
O 3.1522 1.43336 0.622502
O 0.267419 3.54841 -0.512895
O -0.422128 3.46793 0.669852
O -3.21424 1.48576 -0.584025
O -3.43813 0.757333 0.661879
O -2.30315 -2.62021 -0.54313
O -1.68082 -3.08259 0.695541
O 1.66794 -2.91826 -0.651071
O 2.31922 -2.57241 0.618725