291
Atoms. Timestep: 0
O 0.983536 0.678263 3.36062
O 1.93239 1.3964 2.58674
O -0.392535 1.14026 3.33248
O -0.719355 2.3395 2.58621
O -1.25103 0.006 3.38995
O -2.47035 0.00682 2.63587
O -0.406258 -1.12877 3.31015
O -0.768147 -2.34706 2.54778
O 0.937514 -0.763097 3.34708
O 1.88877 -1.47953 2.59091
O 2.46714 -0.0220397 -2.48128
O 1.34224 0.0164818 -3.28503
O 0.791971 2.34511 -2.57441
O 0.439165 1.148 -3.22787
O -1.88484 1.57875 -2.54441
O -0.972634 0.750651 -3.27277
O -1.88089 -1.37537 -2.59893
O -0.919391 -0.655588 -3.30157
O 0.75567 -2.21998 -2.41314
O 0.439328 -1.1353 -3.24774
O 2.90972 -0.774965 1.8918
O 2.89136 0.668668 1.84067
O 1.54415 2.52913 1.83409
O 0.25366 3.09186 1.86237
O -1.93836 2.33888 1.85052
O -2.81762 1.21185 1.90121
O -2.82738 -1.11784 1.80249
O -1.98733 -2.30803 1.79144
O 0.24848 -3.0825 1.86287
O 1.57163 -2.59931 1.83937
O 2.81528 1.15284 -1.77501
O 2.00333 2.35199 -1.81631
O -0.2038 3.09117 -1.78012
O -1.54998 2.64975 -1.76592
O -2.82704 0.818768 -1.78448
O -2.83388 -0.63215 -1.83641
O -1.52095 -2.56206 -1.88775
O -0.167572 -3.01426 -1.73476
O 2.06141 -2.35216 -1.77831
O 2.89279 -1.16385 -1.75686
O 3.33679 0.716216 -0.548491
O 3.13812 1.39166 0.63427
O 0.452577 3.47062 -0.576575
O -0.314427 3.52028 0.622099
O -3.13538 1.4866 -0.560089
O -3.44483 0.811327 0.652622
O -2.243 -2.50953 -0.678246
O -1.63664 -2.95494 0.530175
O 1.82331 -3.10699 -0.604547
O 2.41194 -2.70289 0.656245
O 3.20573 -1.4897 0.711387
O 3.41335 -0.719583 -0.500721
O 2.29862 2.57253 0.627755
O 1.78768 3.03621 -0.622353
O -1.6629 3.07545 0.646407
O -2.26115 2.66577 -0.553685
O -3.34157 -0.565359 0.620294
O -3.02284 -1.29616 -0.554466
O -0.33691 -3.47438 0.631205
O 0.477512 -3.56457 -0.562143
C -3.92499 2.96354 4.53357
C -2.97163 2.40176 5.32306
H -4.43005 4.01232 -4.95771
C -3.15125 -8.77453 24.6439
C -2.76673 -8.12145 23.7058
C 3.42702 -3.80855 -11.7156
C 3.19303 -3.19009 -10.6346
C -4.28054 -4.49628 -3.87724
C -3.10687 -4.48565 -4.22218
C 5.60936 -4.0499 0.0566643
C 5.11897 -4.25523 -0.964935
C -3.57054 4.37402 -4.39522
C -2.41251 3.9756 -4.84995
C -2.17029 1.98602 6.05623
C -1.27947 1.46461 7.03608
C 2.97071 -2.79703 -9.46151
C 2.6976 -2.3527 -8.33769
C -11.9607 6.8827 -2.71885
C -12.6042 7.39158 -3.49178
C -11.0712 6.21132 -1.77926
C -10.3376 5.84255 -0.959802
C -6.63816 8.86839 -0.207516
C -6.66044 7.84543 -0.736947
H -13.1873 7.78995 -4.3257
C 2.31522 -1.88875 -7.07117
C 3.32857 -1.78879 -6.03128
C -9.50751 5.35711 -0.0409792
C -8.50141 4.92714 0.609091
C 6.39549 -3.8506 2.4217
C 6.09507 -3.90847 1.31373
C 8.37741 -1.85262 -5.56104
C 9.06372 -2.18618 -4.5229
C -4.23252 -3.1479 4.65947
C -3.47109 -3.65961 5.40733
C -7.26508 8.57931 4.43225
C -6.27 8.20382 3.80576
C -1.31152 -0.417906 -6.42359
C -2.40918 -0.0150799 -6.04547
C -0.0830797 -0.914939 -6.7226
C 0.976594 -1.3335 -6.88099
C -6.58069 4.37803 2.20297
C -7.49302 4.66801 1.35547
C 6.70019 -3.75473 3.80163
C 5.79202 -2.96084 4.44547
H 7.46531 -4.33424 4.3471
C 10.5676 -2.85268 -2.57931
C 9.75315 -2.47362 -3.62411
C 3.41864 3.00267 6.84696
C 2.27587 3.55067 6.29536
C 4.01804 -4.53615 -3.26858
C 4.5379 -4.48704 -2.269
C 5.71143 -1.53014 -3.24694
C 6.53742 -1.47114 -2.16415
C 1.26222 3.99395 5.69996
C 0.322025 4.50236 5.05696
C 4.95361 -1.55488 -4.10879
C 4.06367 -1.6371 -5.13765
C 35.4944 23.6225 3.41922
C 35.5871 22.9656 4.43998
C 4.08248 -4.67658 -5.83377
C 3.3875 -4.57904 -4.68062
C 2.0872 -0.296636 6.22256
C 3.08321 -0.876417 5.93542
C 0.936152 0.2578 6.37286
C -0.179809 0.855682 6.62928
H 3.83156 3.28577 7.88814
C -39.1934 0.604315 -21.3794
C -39.93 -0.2561 -20.9304
C 4.06692 -1.56527 5.50467
C 4.96587 -2.23636 4.97322
C 2.2767 2.68034 -6.08825
C 1.23481 3.08295 -5.74186
C 6.71334 0.127349 1.88006
C 7.27339 -0.374858 1.01344
C -4.39524 0.815002 -4.92352
C -3.42192 0.380271 -5.50906
C 7.22896 -1.33734 -1.24646
C 7.98456 -1.04539 -0.0152297
C 7.65921 -1.3665 -6.53643
C 7.02779 -0.771666 -7.42434
C -4.80508 3.57678 3.85319
C -5.69097 4.09978 3.05292
C 5.45612 1.20427 3.89799
C 6.00669 0.706972 3.00812
C 6.9454 -4.74852 -11.4372
C 7.31766 -4.7229 -12.5365
H 11.0411 -1.98843 -2.02544
C -1.43151 5.39227 3.44715
C -0.572534 4.91313 4.26692
C 4.14214 2.31007 5.86876
C 4.78071 1.74295 4.95596
C 5.34041 -4.89788 -8.02446
C 4.71497 -4.76927 -6.92438
C 28.182 -31.0015 11.0768
C 28.7641 -31.0316 12.1378
C 18.3195 -21.7842 -37.6199
C 18.8935 -22.2416 -38.5947
C 10.2941 -5.31766 -1.69616
C 10.4607 -4.17424 -2.16163
C -15.6551 13.2145 -15.2616
C -16.1248 12.4767 -14.4465
C 10.4516 -3.6052 1.79995
C 11.1456 -4.41758 2.38681
C -6.20641 15.7751 2.69017
C -6.18016 14.6987 2.3008
C -7.08107 0.706778 2.5277
C -7.24634 1.08432 3.7015
H -1.38968 1.79742 8.07593
C 6.23971 -0.0108968 -8.33579
C 5.15799 0.730383 -7.71744
C -6.40013 5.49979 -1.66744
C -6.50528 6.58058 -1.27082
C 4.21859 1.43389 -7.16352
C 3.32547 2.12966 -6.60741
C 9.63391 -7.6684 -0.924476
C 9.89049 -6.51635 -1.30841
C 3.68176 22.5051 -36.252
C 4.42485 21.5545 -36.2625
C 6.19908 -0.694829 -10.9145
C 6.25814 -0.378047 -9.76296
C -6.26598 3.2092 -2.73446
C -6.30755 4.23424 -2.22614
C 6.51312 -4.80016 -10.1806
C 5.90743 -4.84128 -9.14308
C -1.22767 3.64742 -5.20145
C 0.00804994 3.44401 -5.45822
C 16.0088 0.642653 -26.2464
C 16.1498 -0.518632 -26.5127
H 7.55251 -4.58081 -13.5849
C 24.3428 -16.4603 39.9843
C 25.389 -16.9198 -39.6532
C -35.327 28.7444 -26.3019
C -36.1682 29.4453 -25.8415
C 9.6686 -2.75637 1.1583
C 8.88386 -1.925 0.613262
C -0.613444 -4.68922 -4.68346
C -1.85095 -4.49729 -4.48324
C 1.96926 -4.68268 -4.79513
C 0.675051 -4.71892 -4.7749
C -6.503 -4.20708 -2.72068
C -5.36129 -4.33656 -3.30855
C 29.803 -19.0096 -9.22339
C 29.9276 -19.5199 -10.3181
C -2.36304 5.94026 2.73448
C -3.35737 6.52991 1.86867
C -5.28977 1.25037 -4.15312
C -6.30038 1.67776 -3.21255
C -3.4048 4.88947 -3.07396
C -3.44124 5.20629 -1.96603
H -32.5083 36.9357 -11.7246
C -6.519 0.710468 -2.2705
C -6.70308 -0.292129 -1.27578
C -32.163 35.9793 -12.0146
C -31.9504 34.8407 -12.3046
C -4.38623 7.16964 2.57488
C -5.26962 7.69689 3.17199
C -3.43189 5.67246 -0.621311
C -3.45074 6.03235 0.450847
C -9.83446 13.6366 2.0107
C -9.70256 12.577 2.53141
C -9.91921 14.8008 1.31056
C -9.90026 15.9052 0.826192
C -37.4962 22.1947 -33.266
C -38.3318 22.5976 -32.4769
C -6.19992 12.234 1.66177
C -6.16645 13.354 1.92475
C -15.5963 36.1402 33.0866
C -15.5073 35.1374 32.4157
C -6.85294 0.0338143 0.129901
C -6.9658 0.326526 1.22408
H -7.34485 -4.92237 -2.71439
C -6.29842 10.9627 1.11221
C -6.52071 10.0338 0.454123
C -4.98096 -2.60545 3.73438
C -5.75017 -2.22073 2.83134
C -6.31138 18.327 3.32944
C -6.30325 17.2171 3.1685
C -3.46011 -20.7671 10.9454
C -4.35521 -20.8514 10.1285
C 3.77959 -5.29517 -13.6991
C 3.70386 -4.47515 -12.7872
C 14.8474 -28.7141 -7.62385
C 14.5405 -29.8711 -7.49324
C 38.8544 35.4979 23.7029
C 39.3215 34.7424 24.4978
C -6.58129 -2.79303 -2.23624
C -6.60841 -1.72817 -1.83647
C -22.3328 -32.5 -4.24314
C -23.0653 -31.8106 -3.58225
C 5.34659 20.6168 -36.1963
C 6.15368 19.7192 -35.9101
H -6.36322 19.3852 3.55953
C -8.31713 15.5032 -29.7124
C -8.29122 16.588 -29.1505
C -10.3233 -27.6482 -8.06091
C -11.0529 -28.5264 -7.63651
C 30.7835 33.4853 12.1793
C 29.8112 33.7674 11.48
C 2.12778 -29.2182 -20.0551
C 2.06549 -30.3316 -19.6035
C 28.1907 12.768 26.1841
C 28.5482 13.1807 25.0974
C -34.2044 -38.5185 -7.65784
C -33.3153 -37.9286 -7.07959
C 36.3631 -9.59387 37.9214
C 35.9846 -9.2817 36.8357
C 24.2967 -35.8932 -28.0683
C 24.6258 -35.6102 -29.1956
C 16.5425 11.2749 36.5014
C 15.4931 11.7444 36.1144
C -15.141 -32.4012 -10.5764
C -15.6956 -33.5609 -10.6423
H 2.40573 16.5735 10.847
C -28.2435 35.9042 -24.8371
C -29.4916 35.8298 -24.9733
C -37.9083 9.64908 -12.013
C -38.797 8.78873 -11.9046
C -29.658 9.27827 12.4031
C -29.8028 8.33064 13.2916
C -6.20201 13.8188 -8.59385
C -5.38183 14.6026 -9.18504
C 37.1091 -24.8388 -35.664
C 37.2641 -25.7929 -36.5302
C -22.6988 25.1639 -19.0244
C -23.5652 25.365 -19.9184
C -22.6375 8.15835 -8.9315
C -23.8565 8.20518 -9.28649
C -28.0465 -3.75028 4.73998
C -29.2362 -3.65567 4.81666
C -36.8296 -28.2948 37.1905
C -37.7202 -28.3295 38.1307
291
Atoms. Timestep: 20000
O 1.0074 0.727415 3.31426
O 2.00471 1.51358 2.62417
O -0.395546 1.16705 3.43445
O -0.72481 2.33941 2.71436
O -1.25103 0.006 3.38995
O -2.47035 0.00682 2.63587
O -0.379575 -1.12998 3.25621
O -0.765184 -2.33248 2.58909
O 0.941259 -0.669844 3.36466
O 1.9244 -1.32316 2.55662
O 2.41107 0.0886704 -2.5391
O 1.20042 0.0550101 -3.29511
O 0.765424 2.37229 -2.49633
O 0.360384 1.21272 -3.28967
O -1.91716 1.43957 -2.51293
O -0.961611 0.760369 -3.35428
O -1.98884 -1.33603 -2.50089
O -1.03943 -0.660855 -3.31557
O 0.720649 -2.08181 -2.50344
O 0.339238 -1.0833 -3.29355
O 2.96814 -0.614148 1.83106
O 3.05779 0.819012 1.93359
O 1.57215 2.66558 1.874
O 0.25366 3.09186 1.86237
O -1.9325 2.34353 1.93606
O -2.84142 1.18768 1.92976
O -2.86225 -1.11449 1.90143
O -2.02228 -2.2465 1.8744
O 0.24848 -3.0825 1.86287
O 1.50252 -2.469 1.80847
O 2.76859 1.26072 -1.78874
O 2.0074 2.41163 -1.78915
O -0.258296 3.12813 -1.76139
O -1.57629 2.5545 -1.72749
O -2.94888 0.743418 -1.74259
O -3.00634 -0.673419 -1.73798
O -1.6603 -2.54951 -1.79261
O -0.249752 -2.92808 -1.87709
O 2.0106 -2.14085 -1.85009
O 2.9571 -1.04807 -1.82245
O 3.45109 0.827453 -0.591934
O 3.1538 1.42352 0.673641
O 0.372942 3.51246 -0.623239
O -0.340947 3.47607 0.623427
O -3.12418 1.46075 -0.511003
O -3.43149 0.794336 0.693184
O -2.37476 -2.47811 -0.589677
O -1.7378 -2.90516 0.622505
O 1.69284 -2.75542 -0.619956
O 2.31522 -2.42525 0.57723
O 3.21575 -1.31425 0.62673
O 3.48577 -0.615814 -0.597851
O 2.32569 2.60929 0.639379
O 1.7613 3.13051 -0.575462
O -1.71351 3.01134 0.68294
O -2.29861 2.55155 -0.51869
O -3.50166 -0.625135 0.679314
O -3.2845 -1.36128 -0.540175
O -0.374809 -3.2636 0.56729
O 0.373831 -3.33113 -0.652967
C -3.08086 3.57445 5.66522
C -2.33475 3.24938 6.68944
H -2.7112 5.2928 -6.60682
C 5.43076 -9.81127 17.3353
C 5.47333 -11.0097 17.3422
C 3.67287 -3.8365 -11.8323
C 3.45273 -3.47778 -10.7397
C -3.53362 -3.9867 -4.18157
C -2.43242 -4.38542 -4.45044
C 5.13245 -4.18335 -0.135303
C 4.89643 -4.54794 -1.32826
C -2.08294 5.06572 -5.67865
C -0.882181 4.50928 -5.72165
C -1.51838 2.87404 7.58464
C -0.643792 2.49399 8.56978
C 3.21275 -3.02877 -9.48933
C 2.92683 -2.7028 -8.2929
C -9.83966 4.54106 -3.30334
C -10.5573 4.6111 -4.18992
C -9.0114 4.5452 -2.15345
C -8.43582 4.53525 -1.15022
C -6.79689 10.0088 -1.33814
C -6.58115 8.97093 -1.79231
H -11.2828 4.60641 -5.01315
C 2.44449 -2.27185 -7.04573
C 3.25682 -2.33611 -5.79776
C -7.60743 4.59102 -0.118341
C -6.79015 4.54616 0.792394
C 5.75293 -3.64399 2.28673
C 5.49929 -3.88332 1.07278
C 7.43037 -4.00899 -4.03053
C 7.69581 -4.5333 -2.84596
C 0.800404 -3.29849 6.53811
C 1.67588 -4.08161 6.73269
C -7.71243 8.94978 2.00244
C -6.63801 8.42614 1.75117
C -0.791859 -0.0525049 -6.7006
C -1.83137 0.583576 -6.38148
C 0.291036 -0.719806 -6.89486
C 1.3158 -1.43133 -6.96181
C -5.31747 4.23943 2.77381
C -6.09011 4.37605 1.76265
C 6.11197 -3.45104 3.54493
C 5.11398 -2.72347 4.26035
H 7.12952 -3.78163 3.92113
C 8.28239 -5.6082 -0.507805
C 7.97186 -5.06023 -1.74183
C 2.8947 3.62149 6.38126
C 1.86556 4.12912 5.63808
C 4.18441 -5.3276 -3.68559
C 4.50681 -4.91475 -2.51965
C 5.37071 -1.953 -2.75923
C 6.2404 -1.65846 -1.63439
C 1.04853 4.59146 4.94958
C 0.0748062 5.05302 4.1408
C 4.68912 -2.19338 -3.6494
C 3.89807 -2.35393 -4.87103
C 30.7062 34.3641 0.599847
C 31.83 34.6245 0.250648
C 4.54601 -5.66787 -6.19785
C 3.73866 -5.76288 -5.0087
C 1.85465 0.2918 6.52961
C 2.61675 -0.46194 5.90583
C 1.03568 0.988086 7.16114
C 0.29651 1.7223 7.86364
H 2.84705 3.54832 7.47439
C -39.1727 12.6556 -27.2296
C -38.5885 11.9927 -26.3837
C 3.39742 -1.27268 5.39703
C 4.20494 -2.07588 4.84809
C 3.39957 1.96986 -6.35709
C 2.41956 2.67901 -6.09226
C 6.43559 -0.0078 2.48589
C 7.10592 -0.60046 1.57531
C -3.77123 1.7643 -5.22305
C -2.77849 1.12507 -5.87891
C 6.90493 -1.38765 -0.757993
C 7.73116 -1.14896 0.462066
C 7.22079 -3.43768 -5.14712
C 6.94227 -2.83922 -6.20003
C -3.86823 3.88736 4.67883
C -4.62515 4.10989 3.72271
C 5.15758 1.38953 4.10992
C 5.79479 0.694168 3.28133
C 7.26492 -5.76373 -12.0622
C 7.70452 -5.69241 -13.0917
H 8.58787 -5.03227 0.425648
C -1.55996 5.73666 2.47101
C -0.652227 5.38854 3.29641
C 3.63629 2.78765 5.57695
C 4.36505 2.03201 4.88061
C 5.72496 -5.75833 -8.39631
C 5.16712 -5.69469 -7.25617
C 36.2533 -23.897 20.2396
C 36.6735 -23.9824 21.3723
C 18.6404 -22.0523 -34.4453
C 17.7942 -21.3332 -33.8984
C 7.89386 -8.22884 -0.684647
C 8.07774 -7.00071 -0.587054
C -18.5026 7.11414 -16.5416
C -18.11 7.34511 -15.41
C 11.3438 -2.48201 1.0533
C 12.6007 -2.62023 1.08826
C -8.27935 17.0858 0.318387
C -8.12607 15.9427 0.178946
C -6.64727 1.06678 1.82558
C -6.63505 1.22958 2.99776
H -0.534685 2.84818 9.61372
C 6.88775 -1.83387 -7.32113
C 5.96532 -0.765665 -7.1568
C -6.24485 6.65508 -2.75523
C -6.36738 7.72645 -2.33501
C 5.11944 0.147662 -6.94012
C 4.25494 1.09912 -6.74774
C 7.61797 -10.6961 -1.01389
C 7.70693 -9.48929 -0.8339
C 2.34418 22.2267 -34.1959
C 3.60972 22.15 -34.2966
C 7.71484 -2.32076 -9.76706
C 7.32672 -2.17146 -8.60548
C -5.84285 4.24381 -3.40419
C -6.04348 5.34392 -3.1559
C 6.72553 -5.84598 -10.6974
C 6.28724 -5.83075 -9.64266
C 0.272724 4.02354 -5.81947
C 1.33222 3.42458 -5.88731
C 18.3327 5.60473 -32.3552
C 19.2445 6.13754 -32.9413
H 8.14497 -5.51011 -14.0938
C 21.1422 -18.2838 37.9007
C 21.3766 -17.4039 38.786
C 34.0184 27.7398 -18.577
C 35.0766 27.0973 -18.6836
C 10.1179 -2.09793 0.809732
C 9.01833 -1.7028 0.632467
C -0.0258257 -4.71083 -4.93158
C -1.17906 -4.64029 -4.78689
C 2.35629 -5.36362 -5.09095
C 1.18651 -4.99674 -5.0888
C -5.89815 -3.07483 -3.75961
C -4.74516 -3.56603 -3.96728
C 33.8839 -21.8448 -2.61783
C 34.9228 -21.3484 -2.30545
C -2.4582 6.11332 1.71232
C -3.35679 6.47638 0.680445
C -4.56318 2.26853 -4.55857
C -5.65747 2.73311 -3.70102
C -2.34747 5.4194 -4.25592
C -2.52707 5.67605 -3.15211
H -31.3892 -39.8795 -8.73428
C -6.15382 1.74883 -2.87658
C -6.52291 0.683292 -2.13165
C -31.9762 39.5657 -9.4859
C -32.4949 38.836 -10.2939
C -4.58409 7.20831 1.07709
C -5.53499 7.77871 1.42655
C -2.82429 5.85912 -1.81764
C -3.04 6.07201 -0.701761
C -6.01397 13.6514 4.30327
C -5.77933 14.6697 4.9022
C -6.59602 12.6696 3.70021
C -7.15578 11.7484 3.10464
C 33.4232 4.6868 -26.0012
C 32.7216 4.74033 -25.0048
C -7.7105 13.4925 -0.138947
C -7.95987 14.6166 0.0794281
C -28.4165 -36.8277 23.122
C -28.8157 -37.59 23.9858
C -6.7354 0.848225 -0.65291
C -6.74527 0.944733 0.504449
H -6.80756 -3.47568 -4.25301
C -7.42841 12.2943 -0.492889
C -7.1028 11.2412 -0.873734
C -0.14908 -2.46562 6.11981
C -0.934026 -1.65467 5.72255
C -8.38336 19.5746 0.900073
C -8.37112 18.4668 0.667291
C -17.6272 -26.2231 6.50635
C -16.8335 -25.3423 6.72404
C 4.73379 -4.56496 -14.0025
C 4.12031 -4.23825 -12.9902
C 20.5152 -22.0298 -13.2925
C 20.7186 -20.9395 -12.8499
C 37.6379 31.7987 20.8261
C 37.2115 32.3343 21.8394
C -5.99561 -1.71465 -3.16452
C -6.1585 -0.684459 -2.7351
C -27.7505 -34.7908 0.216036
C -27.9584 -34.4061 1.36439
C 4.90156 21.9955 -34.3727
C 6.0711 21.7219 -34.4535
H -8.32282 20.625 1.04292
C -7.32595 9.92225 -22.8883
C -6.69542 9.86519 -23.9049
C -10.5453 -33.8368 -7.65133
C -11.4268 -34.1961 -8.41117
C -38.3495 29.8452 9.34481
C -37.3922 29.7283 10.1026
C 1.81766 38.8543 -19.5268
C 1.76922 -39.9081 -19.4474
C 38.0868 9.7438 23.8446
C 37.7658 9.11708 22.8817
C -28.4168 37.3701 -5.58113
C -27.708 37.2859 -6.53702
C 30.3133 -15.8006 -37.3297
C 30.7092 -16.5567 -36.4536
C 29.3909 -31.8183 -25.9801
C 29.7217 -31.5916 -27.1069
C 14.1509 8.17579 22.8983
C 15.2441 8.33325 22.4476
C -5.22483 35.8353 -1.41901
C -5.87792 36.7092 -0.77301
H 34.5773 -35.9587 17.2721
C 35.7715 -38.8046 -30.474
C 35.1541 -39.2406 -29.4809
C 38.9627 14.3834 -23.9239
C 39.8066 13.5292 -24.2469
C -32.6537 10.8255 17.8225
C -33.2167 9.66024 17.6976
C -7.38116 18.8188 -6.10716
C -8.65856 18.707 -6.00373
C 32.9155 -28.1021 37.583
C 32.9851 -27.142 38.3437
C -27.9267 24.1971 -7.91384
C -27.6441 25.183 -7.25873
C -13.9283 13.4586 -10.0171
C -13.5929 14.6054 -9.82237
C -35.6533 -11.9947 -4.84961
C -34.5341 -11.8988 -5.25597
C -36.4932 -22.6237 -34.4636
C -35.9134 -22.5932 -33.369
291
Atoms. Timestep: 40000
O 0.900923 0.774064 3.32262
O 1.92817 1.46857 2.64893
O -0.428878 1.16462 3.28666
O -0.742332 2.39844 2.62561
O -1.25103 0.006 3.38995
O -2.47035 0.00682 2.63587
O -0.420539 -1.20569 3.37264
O -0.791517 -2.36537 2.5621
O 0.917864 -0.66881 3.33156
O 1.94225 -1.38102 2.58728
O 2.35205 0.080709 -2.62969
O 1.11792 0.0446085 -3.34297
O 0.667416 2.36906 -2.58289
O 0.266987 1.22247 -3.38046
O -2.05207 1.46183 -2.55333
O -1.07715 0.747727 -3.28576
O -1.95484 -1.35151 -2.55048
O -1.01415 -0.683846 -3.35855
O 0.677595 -2.31047 -2.5889
O 0.287135 -1.12756 -3.24128
O 2.83736 -0.654377 1.77494
O 2.77266 0.706989 1.7647
O 1.63735 2.59899 1.84735
O 0.25366 3.09186 1.86237
O -1.95135 2.33087 1.84986
O -2.8364 1.17824 1.87182
O -2.8075 -1.11949 1.81098
O -2.00544 -2.29423 1.876
O 0.24848 -3.0825 1.86287
O 1.55663 -2.52135 1.82128
O 2.70499 1.24077 -1.88498
O 1.90263 2.34294 -1.78551
O -0.311737 3.06811 -1.78019
O -1.66025 2.61837 -1.84783
O -2.9642 0.795834 -1.72821
O -2.98764 -0.645918 -1.7814
O -1.59506 -2.54216 -1.81602
O -0.266749 -3.09468 -1.84129
O 1.88221 -2.24813 -1.85047
O 2.73784 -1.10767 -1.89903
O 3.32557 0.759598 -0.716391
O 3.04849 1.36189 0.52454
O 0.352183 3.47131 -0.602122
O -0.331841 3.56388 0.647082
O -3.31987 1.50841 -0.566248
O -3.47792 0.76129 0.642596
O -2.2969 -2.53391 -0.59879
O -1.75655 -2.98371 0.610117
O 1.71953 -2.99019 -0.634803
O 2.30326 -2.54316 0.611494
O 3.09806 -1.36062 0.580852
O 3.32571 -0.654122 -0.650929
O 2.37751 2.63152 0.595515
O 1.71571 3.13052 -0.609701
O -1.69286 3.00868 0.641927
O -2.38767 2.61687 -0.555076
O -3.40651 -0.666311 0.634141
O -3.12621 -1.37457 -0.561158
O -0.396278 -3.39905 0.651887
O 0.338699 -3.41861 -0.579255
C -2.82128 3.62129 4.85186
C -1.91272 3.35957 5.73358
H -3.96589 4.44757 -5.98866
C 14.069 -12.6851 10.0467
C 13.6417 -12.0573 10.9711
C 4.97512 -3.07576 -11.7749
C 4.48028 -2.82751 -10.7462
C -3.6116 -4.10486 -3.77784
C -2.4135 -4.45193 -4.13221
C 5.45178 -5.38884 -0.107819
C 5.13604 -5.5466 -1.2856
C -3.18221 4.3151 -5.26735
C -1.95593 3.842 -5.46712
C -1.00786 3.18292 6.57197
C 0.039672 2.96793 7.4072
C 3.91229 -2.49462 -9.53545
C 3.37079 -2.36242 -8.52796
C -10.9713 5.46516 -3.12215
C -11.7358 5.84381 -3.88246
C -10.0425 5.03547 -2.1727
C -9.22812 4.68387 -1.30082
C -6.65289 9.53483 -1.77707
C -6.6636 8.32058 -2.05888
H -12.4457 6.22661 -4.58477
C 2.70044 -2.28894 -7.23108
C 3.48223 -2.36644 -6.01162
C -8.32374 4.36623 -0.446792
C -7.43092 4.13012 0.467436
C 5.88075 -4.84987 2.36499
C 5.66769 -5.16612 1.13302
C 7.94456 -3.78447 -4.14574
C 8.45059 -4.65054 -3.38213
C 2.88698 -4.37442 8.72523
C 2.03178 -4.21393 7.90036
C -6.70798 10.5435 2.29652
C -5.98123 9.60783 2.0352
C -0.837515 -0.60088 -6.75697
C -1.93817 -0.0740919 -6.35368
C 0.266287 -1.15917 -7.03925
C 1.39257 -1.70819 -7.18598
C -5.4646 4.0047 2.1052
C -6.45613 4.04753 1.31666
C 6.2426 -4.61717 3.64165
C 5.37002 -3.65139 4.20951
H 7.19619 -4.80535 4.15759
C 9.4081 -6.44349 -1.73229
C 8.92434 -5.4878 -2.58986
C 3.28924 3.69016 6.03953
C 2.25099 4.3047 5.34926
C 4.24907 -5.81946 -3.62422
C 4.64646 -5.71451 -2.46911
C 5.31887 -2.43324 -2.79063
C 6.06091 -2.297 -1.62415
C 1.37355 4.82006 4.79815
C 0.374636 5.4509 4.09259
C 4.80947 -2.41071 -3.81639
C 4.09628 -2.41184 -5.06121
C 27.362 -34.5648 -2.67298
C 26.6369 -34.0666 -3.47836
C 4.53896 -5.73662 -6.11944
C 3.7517 -6.04475 -4.96929
C 2.44414 0.0593408 6.22587
C 3.21553 -0.880373 5.76686
C 1.60733 0.988847 6.636
C 0.859468 1.94337 6.99791
H 3.50113 3.91786 7.10311
C -35.4229 19.0084 39.053
C -34.4084 19.6121 39.2647
C 3.9404 -1.79131 5.35424
C 4.68238 -2.74973 4.84655
C 2.56746 1.81405 -6.16459
C 1.48396 2.45403 -6.0387
C 6.35173 -0.509511 2.22843
C 6.85614 -1.27225 1.37651
C -3.91963 1.0013 -5.22023
C -2.92361 0.475268 -5.82189
C 6.73113 -2.17764 -0.69941
C 7.52978 -2.06072 0.51875
C 7.44635 -2.88896 -4.92673
C 7.00031 -2.07911 -5.8228
C -3.62612 3.7931 3.85663
C -4.53144 3.95033 2.94811
C 5.31675 1.16948 3.87482
C 5.85603 0.316579 3.06642
C 8.33655 -5.44138 -11.2305
C 9.14094 -5.36608 -12.0274
H 10.3804 -6.3507 -1.25226
C -1.57171 6.14422 2.59584
C -0.508346 5.79292 3.42547
C 3.99233 2.78663 5.25452
C 4.64028 1.96441 4.54988
C 5.77218 -5.5025 -8.28321
C 5.13777 -5.48882 -7.17798
C -35.6758 -16.8011 29.417
C -35.4314 -16.9375 30.5753
C 17.3943 -20.9559 -30.2719
C 18.3039 -21.7576 -30.2438
C 7.56235 -8.27856 -1.34684
C 8.43263 -7.4102 -1.55254
C -21.1859 1.2518 -16.7525
C -20.3798 2.15949 -16.7553
C 10.1275 -4.93408 1.4859
C 10.7831 -5.98093 1.73014
C -8.07514 16.5348 0.784343
C -7.79319 15.5339 0.319924
C -7.28293 0.850552 2.25866
C -7.52501 0.926836 3.41287
H 0.333065 3.62823 8.26495
C 6.6073 -1.21578 -6.85182
C 5.58388 -0.228187 -6.73131
C -6.44768 5.91207 -2.59254
C -6.59095 7.03238 -2.34771
C 4.69919 0.521851 -6.50646
C 3.64895 1.22513 -6.3238
C 6.03645 -10.305 -1.0059
C 6.81714 -9.31714 -1.12767
C 2.12895 22.1042 -31.6681
C 2.99477 22.753 -32.2833
C 8.21646 -1.05882 -9.00663
C 7.48682 -1.10445 -8.04099
C -6.00746 3.51479 -3.31496
C -6.19842 4.60579 -3.03665
C 7.26211 -5.4666 -10.2515
C 6.48865 -5.45077 -9.39175
C -0.810401 3.35685 -5.67467
C 0.369453 2.92871 -5.84028
C 21.7783 11.2 -39.1834
C 21.2127 12.1498 -38.6389
H 9.78882 -5.19323 -12.8667
C 18.1682 -19.3505 36.6423
C 17.1127 -18.6755 36.4376
C 25.4028 25.5145 -11.043
C 24.3002 25.9731 -11.3485
C 9.33233 -3.9029 1.22467
C 8.52957 -3.123 0.9227
C -0.00612168 -4.97231 -4.62503
C -1.13549 -4.79727 -4.40494
C 2.42907 -5.57456 -4.9821
C 1.31676 -5.23647 -4.91538
C -6.05671 -3.67232 -3.11635
C -4.82087 -3.91432 -3.46576
C 39.3415 -24.0202 4.39202
C 38.533 -23.8324 5.28946
C -2.43504 6.38364 1.87369
C -3.43864 6.73942 1.01553
C -4.8003 1.54707 -4.55149
C -5.73846 2.01888 -3.53038
C -3.28618 4.77368 -3.91407
C -3.31354 5.20684 -2.85918
H -29.0111 -37.9751 -3.96882
C -6.1715 1.09671 -2.57003
C -6.58569 0.17451 -1.63477
C -29.8585 -37.535 -4.52625
C -30.7218 -37.1267 -5.26461
C -4.42015 7.78377 1.40042
C -5.17684 8.64359 1.66455
C -3.36196 5.67459 -1.41202
C -3.46104 6.17501 -0.411131
C -3.09944 13.2209 -3.53204
C -2.64272 12.1953 -4.00054
C -3.56458 14.3708 -3.13735
C -4.08027 15.4946 -3.02767
C 24.6983 -12.7573 -17.5621
C 25.0117 -12.4551 -18.8472
C -7.23697 13.2863 -0.793785
C -7.49998 14.3273 -0.371343
C 38.4184 -30.4877 13.9366
C 38.2449 -29.6384 14.7938
C -6.75691 0.500121 -0.167716
C -6.98266 0.700633 0.942995
H -6.90679 -4.27765 -3.50274
C -6.95749 11.9851 -1.16433
C -6.74215 10.7558 -1.42961
C 3.82296 -4.54729 9.68317
C 4.63799 -4.90767 10.598
C -9.15827 18.8099 1.47961
C -8.67145 17.8237 1.2338
C -30.4742 -30.2262 2.43233
C -30.6143 -31.2889 2.96443
C 5.93658 -3.71693 -14.019
C 5.54066 -3.36056 -12.9309
C 25.4776 -13.9303 -18.2977
C 26.816 -14.199 -18.3639
C 36.0575 28.561 18.8229
C 35.4684 29.4703 18.3124
C -6.22898 -2.25939 -2.65974
C -6.38063 -1.24873 -2.20553
C -33.1982 -36.996 4.91592
C -32.8052 -37.0708 6.05889
C 4.07942 23.1968 -32.8006
C 5.04556 23.7354 -33.2714
H -9.65237 19.7792 1.75206
C -5.43571 4.26414 -17.522
C -6.00105 3.23084 -17.2126
C -11.3175 39.6212 -7.67933
C -11.3221 -39.7918 -8.74617
C -25.6125 25.9526 7.98151
C -26.5207 25.927 7.20542
C 1.41176 29.2308 -18.8206
C 1.56928 28.2311 -19.4698
C -32.1146 5.14683 19.7536
C -31.7949 5.0579 20.9229
C -24.0716 33.4918 -7.24915
C -25.0226 33.0208 -7.85504
C 25.0149 -23.4458 -30.9315
C 24.683 -22.3805 -31.4013
C 34.4798 -27.7491 -23.8927
C 34.8141 -27.5788 -25.0245
C 13.545 5.34101 8.56636
C 13.2118 4.66377 9.5347
C 3.81106 25.5498 8.66136
C 4.87409 25.8114 8.15411
H -13.2807 -8.51622 23.7648
C 19.4628 -33.7707 -35.5186
C 20.1517 -34.0591 -34.5683
C 33.8724 24.126 -28.3327
C 33.006 23.6266 -27.6625
C -36.9953 12.7209 22.9072
C -36.4207 12.214 23.9278
C -9.98701 21.9437 -1.34614
C -10.9088 21.4076 -0.817107
C 28.9207 -29.4479 32.3489
C 28.6014 -30.4105 31.6927
C -32.7145 24.6151 4.15195
C -32.1213 23.6387 4.47575
C -4.62262 20.2658 -11.0677
C -3.71872 19.4996 -10.8509
C 38.9158 -20.0356 -15.236
C 38.004 -20.3302 -14.5137
C -35.7577 -16.9323 -25.4001
C -34.5941 -16.8815 -25.585
291
Atoms. Timestep: 60000
O 0.894679 0.765947 3.35102
O 1.93657 1.47273 2.6774
O -0.472598 1.17773 3.3324
O -0.751744 2.31604 2.51893
O -1.25103 0.006 3.38995
O -2.47035 0.00682 2.63587
O -0.407952 -1.17176 3.39662
O -0.704542 -2.35163 2.65707
O 0.923236 -0.654796 3.25474
O 1.9205 -1.42488 2.54209
O 2.49399 0.0120047 -2.56424
O 1.27159 0.0451724 -3.2434
O 0.69655 2.32151 -2.57381
O 0.360361 1.15291 -3.3047
O -1.96272 1.44549 -2.49572
O -1.012 0.705667 -3.27536
O -2.00008 -1.41598 -2.4978
O -0.99401 -0.730826 -3.23955
O 0.770091 -2.30267 -2.53473
O 0.372815 -1.12702 -3.22929
O 2.89014 -0.633134 1.83356
O 2.87377 0.76964 1.90433
O 1.59785 2.65424 1.91052
O 0.25366 3.09186 1.86237
O -1.99434 2.4264 1.82704
O -2.75061 1.17037 1.8631
O -2.82212 -1.1527 1.87976
O -1.94159 -2.28815 1.90927
O 0.24848 -3.0825 1.86287
O 1.60423 -2.63869 1.81314
O 2.73848 1.15185 -1.83977
O 1.86404 2.28196 -1.7576
O -0.272953 3.07914 -1.77171
O -1.58421 2.60204 -1.70777
O -2.96494 0.776242 -1.69865
O -2.94164 -0.672737 -1.71817
O -1.56867 -2.50457 -1.73067
O -0.283676 -3.00935 -1.78142
O 1.98331 -2.32849 -1.78095
O 2.76988 -1.16666 -1.80604
O 3.22336 0.737243 -0.510615
O 3.17669 1.46825 0.718218
O 0.326319 3.45281 -0.544953
O -0.382935 3.5543 0.653622
O -3.15841 1.46347 -0.504847
O -3.46549 0.706077 0.684544
O -2.30481 -2.51255 -0.52895
O -1.67503 -2.92903 0.623601
O 1.7366 -3.06522 -0.579167
O 2.38389 -2.57478 0.596972
O 3.13058 -1.35316 0.64087
O 3.30588 -0.694774 -0.566369
O 2.33768 2.622 0.651495
O 1.72444 3.06583 -0.568056
O -1.78628 3.20247 0.653612
O -2.38482 2.68678 -0.525202
O -3.45581 -0.723762 0.69174
O -3.29152 -1.43574 -0.532819
O -0.359252 -3.39473 0.633463
O 0.320737 -3.44242 -0.539023
C -3.35275 2.92616 4.52404
C -2.51427 2.57473 5.36181
H -3.75325 4.60411 -5.62732
C 21.3529 -14.5243 4.71722
C 21.7188 -13.8021 3.81587
C 4.04436 -4.04078 -11.5574
C 3.57245 -3.53321 -10.6291
C -3.91817 -3.4329 -5.29786
C -2.76868 -3.77194 -5.51478
C 5.38916 -4.06385 -1.0052
C 4.96278 -4.37074 -2.17521
C -2.88582 4.83165 -4.97188
C -1.70229 4.36606 -5.23575
C -1.69396 2.30692 6.31513
C -0.779968 2.00435 7.31902
C 3.14064 -2.93443 -9.47303
C 2.79014 -2.44069 -8.48991
C -11.4807 5.10004 -3.40529
C -12.2289 5.18827 -4.22743
C -10.3661 5.04086 -2.36664
C -9.56018 5.01931 -1.53388
C -6.55607 10.2794 -1.8024
C -6.43643 9.11397 -1.81786
H -13.0273 5.16425 -4.95772
C 2.34162 -1.92383 -7.23682
C 3.34385 -1.79359 -6.11105
C -8.61795 4.8746 -0.628264
C -7.72212 4.83919 0.286346
C 6.12585 -3.62589 1.37126
C 5.73324 -3.70927 0.187541
C 7.80352 -3.39017 -5.00014
C 8.08711 -3.98506 -3.9196
C 3.87516 -5.33141 7.68787
C 4.39622 -4.32116 8.11691
C -7.71379 8.82578 3.60172
C -6.78397 8.25025 2.96042
C -1.08826 0.00316431 -6.53649
C -2.01778 0.603252 -6.04766
C 0.0292375 -0.654847 -6.84627
C 1.09427 -1.24574 -7.08784
C -5.91468 4.23232 1.97314
C -6.81128 4.67418 1.1619
C 6.64633 -3.55962 2.60063
C 5.72124 -2.84052 3.44931
H 7.63278 -3.892 2.94073
C 8.9035 -5.22849 -1.72445
C 8.44343 -4.6206 -2.83991
C 3.16477 3.22482 6.23109
C 2.161 3.82029 5.48145
C 4.06398 -4.94162 -4.47307
C 4.50327 -4.63082 -3.39113
C 5.7942 -1.43289 -3.31765
C 6.68345 -1.17465 -2.14709
C 1.34258 4.32273 4.80743
C 0.36903 4.8181 4.10692
C 5.04277 -1.53713 -4.15504
C 4.07204 -1.73535 -5.25567
C 23.6934 -23.9944 -6.39209
C 22.5025 -24.182 -6.15881
C 4.42529 -5.17152 -6.85225
C 3.51976 -5.27327 -5.76532
C 2.24729 -0.0907841 5.95688
C 3.17048 -0.810194 5.46018
C 1.28103 0.615123 6.38567
C 0.300953 1.30897 6.82936
H 3.26575 3.35541 7.31192
C -30.9035 25.6252 26.8113
C -31.8236 25.8736 26.0547
C 4.10557 -1.55195 4.94713
C 4.99176 -2.23011 4.24798
C 2.74011 2.19041 -6.52365
C 1.65033 2.92718 -6.13597
C 7.00497 0.592788 1.83332
C 7.63394 -0.000458875 0.944268
C -3.84076 1.86625 -4.86902
C -2.99072 1.1961 -5.51528
C 7.40242 -1.02377 -1.29763
C 8.26959 -0.691092 -0.0610397
C 7.54655 -2.71714 -6.18443
C 7.11455 -2.01193 -6.97484
C -4.17952 3.36222 3.64112
C -5.05147 3.86676 2.84262
C 5.50747 1.6179 3.63481
C 6.20376 1.11007 2.70501
C 7.95917 -4.05524 -12.1644
C 8.62127 -3.83334 -13.051
H 9.209 -4.79482 -0.785608
C -1.53988 5.90201 2.94181
C -0.520638 5.27779 3.51762
C 4.09523 2.67833 5.32517
C 4.73178 2.15363 4.46417
C 6.06738 -4.87662 -8.83404
C 5.30295 -5.07298 -7.79783
C -28.2995 -10.3164 37.8092
C -28.215 -10.4978 38.9824
C 18.321 -21.7409 -26.1211
C 18.5138 -21.8871 -27.3299
C 8.40691 -7.81104 -1.72381
C 8.63764 -6.6647 -1.72842
C -22.9618 -3.35835 -16.8732
C -23.1309 -3.32802 -18.0571
C 11.6431 -2.44526 0.816697
C 12.7046 -2.98543 1.17424
C -6.68235 17.6771 -0.768456
C -6.85143 16.5689 -1.01021
C -7.81399 0.463786 1.90618
C -7.94383 0.438764 3.08635
H -0.884819 2.43556 8.32569
C 6.43447 -1.04686 -7.93844
C 5.48959 -0.0756074 -7.40851
C -6.22004 6.63825 -2.19329
C -6.32083 7.75762 -1.95251
C 4.58912 0.610555 -7.07857
C 3.60419 1.45473 -6.80559
C 8.07703 -10.2778 -1.82603
C 8.24934 -9.07194 -1.65475
C 2.42904 22.574 -29.4552
C 2.78466 23.4596 -30.2796
C 6.83928 -1.27144 -10.473
C 6.65547 -1.16821 -9.30434
C -5.97769 4.21174 -2.83849
C -6.13495 5.32365 -2.57497
C 7.26973 -4.43513 -10.9425
C 6.71817 -4.59065 -9.92944
C -0.597084 3.89919 -5.57063
C 0.650458 3.42204 -5.85811
C 23.8992 17.5631 35.498
C 24.0397 16.3958 35.2313
H 9.26218 -3.71984 -13.9091
C 14.6108 -19.7698 35.3449
C 14.0547 -20.3933 34.4386
C 15.9288 24.5164 -3.86846
C 16.0503 23.9099 -4.93287
C 10.5761 -1.83075 0.491312
C 9.49318 -1.28264 0.226998
C -0.341699 -4.36448 -5.76238
C -1.57938 -4.0544 -5.70371
C 2.13138 -4.90852 -5.81924
C 0.926597 -4.65319 -5.89289
C -6.26509 -2.48579 -4.79308
C -5.02709 -2.93837 -5.02724
C -36.5815 -25.749 11.9131
C -37.2878 -26.3828 11.1437
C -2.45304 6.36486 2.38755
C -3.46775 6.87847 1.45876
C -4.72921 2.28819 -4.09415
C -5.7679 2.73313 -3.23703
C -2.85686 5.3243 -3.55909
C -2.84835 5.68775 -2.48433
H -27.1857 -34.8252 0.8322