228
Atoms. Timestep: 0
O 0.987297 0.777552 3.38825
O 1.9163 1.43142 2.62272
O -0.418709 1.15398 3.33066
O -0.744778 2.38566 2.63608
O -1.25103 0.006 3.38995
O -2.47035 0.00682 2.63587
O -0.36872 -1.13241 3.35658
O -0.723166 -2.30318 2.55713
O 0.967752 -0.641859 3.27106
O 1.95077 -1.39856 2.55978
O 2.47157 0.0431989 -2.56675
O 1.27018 -0.00370633 -3.31075
O 0.75062 2.23425 -2.56383
O 0.382603 1.09258 -3.36149
O -1.85227 1.41017 -2.53551
O -0.97183 0.689877 -3.39283
O -1.91835 -1.48268 -2.58194
O -0.998253 -0.717919 -3.40189
O 0.739248 -2.32892 -2.57196
O 0.395599 -1.14651 -3.2948
O 2.89068 -0.691057 1.86138
O 2.93742 0.744963 1.91553
O 1.56655 2.62282 1.85682
O 0.25366 3.09186 1.86237
O -1.93752 2.356 1.86368
O -2.76958 1.15506 1.89732
O -2.74399 -1.14557 1.80745
O -1.9409 -2.3472 1.8095
O 0.24848 -3.0825 1.86287
O 1.67092 -2.65935 1.88565
O 2.78868 1.16849 -1.78453
O 1.94448 2.33114 -1.80225
O -0.219013 3.00988 -1.79353
O -1.51859 2.57716 -1.73342
O -2.87556 0.704421 -1.80356
O -2.96315 -0.75735 -1.85146
O -1.53802 -2.58228 -1.79571
O -0.203727 -3.0602 -1.79026
O 1.93296 -2.25148 -1.74909
O 2.80129 -1.12104 -1.80128
O 3.44082 0.768307 -0.529578
O 3.19449 1.47936 0.678903
O 0.378207 3.44336 -0.589604
O -0.350038 3.47904 0.630951
O -3.09729 1.39371 -0.584624
O -3.25608 0.656173 0.616033
O -2.25738 -2.66004 -0.581653
O -1.69925 -3.07035 0.630013
O 1.76818 -3.08347 -0.596394
O 2.41848 -2.6162 0.647734
O 3.13796 -1.35451 0.645858
O 3.33577 -0.648296 -0.550045
O 2.35362 2.62541 0.650997
O 1.74429 2.99851 -0.551969
O -1.69908 3.07929 0.651097
O -2.31331 2.59871 -0.552391
O -3.31097 -0.713533 0.620918
O -3.08485 -1.45497 -0.624017
O -0.353155 -3.44636 0.568213
O 0.40499 -3.43171 -0.570794
C 2.36179 3.79672 -4.81187
C 1.19365 4.19983 -5.13745
H 38.354 -0.565656 20.0383
C -5.96411 36.1337 15.8035
C -7.13343 36.0587 16.0809
C -36.0085 15.8634 -7.27724
C -35.8058 14.7621 -7.84457
C -19.5367 -32.1049 8.7516
C -19.2194 -33.0831 9.434
C -3.44249 2.33358 5.55055
C -3.5503 1.22629 5.96723
C 37.9875 -1.1693 20.8786
C 37.6224 -1.77792 21.7668
C 0.0863621 4.6154 -5.42569
C -1.22975 5.04261 -5.59217
C -35.5272 13.698 -8.50711
C -35.2256 12.65 -9.12692
C 11.8432 -1.73049 -2.06465
C 12.7919 -2.32168 -1.88711
C 10.7506 -0.860228 -2.40344
C 9.82106 -0.235497 -2.65243
C 13.8254 -17.2499 -0.187374
C 13.3751 -16.1031 -0.232993
H 13.7094 -2.83 -1.76323
C 7.70103 -0.783651 -0.102754
C 7.16871 0.256479 -0.247926
C 8.78924 0.533646 -3.03002
C 7.84316 1.24676 -3.35097
C -3.2749 4.7228 4.78151
C -3.35502 3.59226 5.19993
C -3.27734 17.7629 -34.089
C -3.01471 17.3016 -32.9126
C 22.717 -18.9865 11.4697
C 21.5689 -19.0824 11.89
C 17.1724 12.679 -8.66352
C 16.3376 13.4809 -9.02657
C 9.23897 -4.28052 0.0319432
C 9.435 -5.4428 -0.019842
C 8.81824 -3.05714 0.0578793
C 8.27618 -1.90356 0.0122427
C 5.74907 2.30291 -3.94097
C 6.80998 1.85391 -3.66362
C -3.19666 6.02608 4.30807
C -3.22647 5.95226 2.91916
H -2.84234 6.88848 4.919
C 5.90123 -8.63647 13.7996
C 6.58516 -7.799 13.2862
C 5.75174 -1.80304 -3.27713
C 5.20994 -1.13931 -4.00809
C -3.39539 -0.997688 7.10652
C -3.55254 0.129563 6.49207
C 5.38059 3.50396 -0.834606
C 4.69429 4.5039 -1.11825
C 4.50289 -0.330278 -5.0463
C 3.89107 0.235536 -5.8318
C 6.06493 2.5219 -0.54513
C 6.64968 1.40414 -0.405697
C -6.51431 9.90383 -22.7866
C -6.73559 9.58511 -21.6512
C -3.28032 -3.21431 8.41411
C -3.33271 -2.13311 7.77835
C -2.62566 5.6731 -2.01088
C -2.91101 5.81732 -0.794082
C -2.26992 5.41295 -3.19735
C -1.78539 5.18944 -4.37882
H 6.26709 -2.42067 -2.55552
C 35.8385 18.3031 -38.4365
C 36.5863 18.4574 -37.5152
C -3.04317 5.88448 0.478854
C -3.16022 5.97859 1.68443
C 5.44799 -4.62795 0.396029
C 5.43302 -5.66284 -0.238544
C 0.742378 7.27817 -2.47829
C 1.80048 6.64957 -2.07144
C 10.4006 -7.71202 -0.0367741
C 10.0031 -6.63148 -0.00101899
C 3.84214 5.29644 -1.40377
C 2.87119 6.0224 -1.69445
C -3.3945 18.2086 -35.2308
C -3.35603 18.6123 -36.4431
C 3.54455 3.36479 -4.50857
C 4.65377 2.84216 -4.18246
C -1.49263 8.33142 -3.05718
C -0.372405 7.82566 -2.76161
C 2.30104 5.96432 1.99858
C 1.23042 6.34909 1.86227
H 5.28077 -9.40093 14.2269
C 2.19989 1.29295 -7.50075
C 3.07938 0.765615 -6.78261
C -3.632 9.53612 -3.60015
C -2.57482 8.93657 -3.30581
C 5.86548 4.64146 2.84664
C 7.05782 4.37164 3.00372
C 0.60835 -6.24356 -19.2189
C 0.0650223 -5.64836 -20.1097
C 33.0805 -3.69393 -20.6933
C 32.1996 -4.28786 -21.3466
C 8.2746 -19.9772 -38.9958
C 9.10518 -20.6261 -39.6858
C 28.1524 10.1894 -0.342508
C 27.5205 10.7951 0.481153
C 4.21582 -8.88688 -20.4095
C 3.83726 -8.02482 -21.1727
C 4.38779 21.0105 31.7423
C 3.77702 21.9972 31.3763
C 8.33683 -28.1549 -22.1078
C 7.93337 -29.1285 -21.499
H -1.7088 5.27886 -6.5864
C 6.3531 -0.810462 3.58248
C 6.16155 -1.73587 2.78416
C 12.4923 -13.73 -0.194997
C 12.8947 -14.938 -0.213257
C 5.868 -2.64483 1.92435
C 5.67408 -3.5625 1.11232
C 14.7236 2.36194 -1.7173
C 15.7224 1.99037 -2.30248
C 30.7365 19.2704 -36.2351
C 29.6146 18.79 -36.0855
C 38.3868 11.1215 -7.78971
C 39.223 10.2346 -7.93462
C 11.6343 -11.3096 -0.0249523
C 12.0474 -12.5333 -0.130365
C 3.62213 5.5492 2.2342
C 4.66953 5.11675 2.44907
C 37.0396 -2.55251 22.8049
C 36.4634 -3.2809 23.5955
C 26.5986 8.95175 6.83609
C 27.3539 8.50568 6.02969
H 0.183824 6.63855 1.64912
C 36.35 -4.72586 26.5098
C 36.5988 -5.72407 25.9207
C -35.6979 -35.9365 13.4421
C -36.1513 -37.0002 13.8115
C -10.6172 -29.6774 27.1361
C -11.5784 -30.4044 27.3184
C 9.23433 22.8877 22.1736
C 10.4119 23.1354 22.4321
C 1.0904 26.8433 28.9796
C 2.1483 27.4073 29.2416
C 39.399 10.8016 -2.59085
C 39.1607 10.2764 -1.51467
C 34.6907 -33.5964 -0.626894
C 35.1273 -34.4809 -1.33776
C 1.23822 1.82139 -8.12643
C 0.400022 2.31139 -8.87585
C 10.8506 -8.98033 -0.0686146
C 11.2681 -10.1705 -0.134762
C -12.8205 -26.8029 -10.9638
C -12.5244 -25.529 -11.0038
H 3.68038 15.7893 10.2748
C -28.2301 35.9115 -24.8297
C -29.4845 35.8651 -24.9445
C 30.6322 13.5957 -1.18272
C 31.7761 13.7089 -1.71513
C -30.6387 9.90031 12.1533
C -30.15 8.7937 12.2114
C -5.60722 13.4522 -8.10907
C -5.28469 14.3376 -8.90486
C 28.4617 -20.5931 -12.6693
C 28.3006 -21.0308 -11.466
C -22.715 25.1677 -19.0411
C -23.5484 25.3613 -19.9019
C -26.2385 2.12023 -3.103
C -25.2824 1.41501 -2.69954
C -27.977 -3.75572 4.73548
C -29.3023 -3.65022 4.81974
C -19.6958 36.8441 32.6176
C -19.7311 36.2723 33.762
228
Atoms. Timestep: 20000
O 0.932212 0.737303 3.42192
O 1.95283 1.46753 2.74173
O -0.468938 1.19688 3.34046
O -0.710271 2.2772 2.48817
O -1.25103 0.006 3.38995
O -2.47035 0.00682 2.63587
O -0.400652 -1.15483 3.38998
O -0.723715 -2.38438 2.64644
O 0.946973 -0.71886 3.47134
O 1.93647 -1.50528 2.73658
O 2.55782 -0.0852652 -2.41548
O 1.36398 -0.0567663 -3.18035
O 0.778924 2.26339 -2.41887
O 0.498285 1.07936 -3.13286
O -1.83708 1.44371 -2.47073
O -0.845933 0.693564 -3.22731
O -1.83235 -1.49407 -2.55293
O -0.822935 -0.786848 -3.26207
O 0.871983 -2.29753 -2.42894
O 0.516337 -1.17638 -3.20795
O 2.95761 -0.80433 2.0133
O 2.8333 0.633459 1.91116
O 1.64099 2.62085 1.88537
O 0.25366 3.09186 1.86237
O -1.9256 2.29532 1.78984
O -2.72467 1.12222 1.86532
O -2.83835 -1.13274 1.90278
O -1.89055 -2.2505 1.88941
O 0.24848 -3.0825 1.86287
O 1.57723 -2.62533 1.94143
O 2.80357 1.07126 -1.59098
O 2.00599 2.21527 -1.683
O -0.179871 3.05128 -1.71326
O -1.53545 2.68367 -1.80929
O -2.80958 0.731316 -1.70425
O -2.7091 -0.700179 -1.75969
O -1.504 -2.5965 -1.75626
O -0.133396 -3.08013 -1.76406
O 2.02801 -2.37639 -1.64512
O 2.92136 -1.29329 -1.61513
O 3.40895 0.586103 -0.413099
O 3.16813 1.32123 0.716225
O 0.49104 3.5524 -0.534739
O -0.292162 3.53953 0.644692
O -3.10809 1.48744 -0.552826
O -3.37303 0.758922 0.664481
O -2.23462 -2.57904 -0.518494
O -1.66656 -3.00183 0.697604
O 1.73516 -3.03464 -0.409187
O 2.38576 -2.67034 0.783744
O 3.30203 -1.59491 0.833427
O 3.59308 -0.878916 -0.412217
O 2.45726 2.57807 0.73773
O 1.83814 3.00709 -0.519211
O -1.65762 3.05259 0.586832
O -2.30084 2.66354 -0.627465
O -3.40693 -0.671985 0.629505
O -3.00497 -1.34517 -0.549721
O -0.380664 -3.57816 0.668111
O 0.401337 -3.54819 -0.524189
C 3.55541 5.72882 -2.07866
C 2.59037 6.60737 -2.29387
H 37.5186 2.31287 25.9153
C 2.6233 33.9574 7.85726
C 1.43878 33.9771 8.07213
C 35.5115 11.754 -5.88936
C 35.9733 12.769 -5.47237
C -20.4487 35.4361 10.3764
C -21.2844 36.1103 10.982
C -3.19918 1.16213 5.82943
C -2.41938 0.836627 6.77918
C 36.487 2.0685 26.0883
C 35.4016 1.78737 26.2758
C 1.62142 7.22256 -2.46733
C 0.482732 8.07073 -2.70459
C 36.413 13.8915 -4.96625
C 36.7858 14.9075 -4.39884
C 10.8854 -3.03854 -1.85467
C 11.5405 -3.92192 -2.09606
C 9.96749 -1.88855 -1.77457
C 9.29098 -0.96768 -1.6844
C 13.9363 -18.9984 -5.45533
C 13.7143 -17.8637 -5.0507
H 12.318 -4.64792 -2.40209
C 7.85804 -3.6673 0.356086
C 7.36685 -2.55443 0.773865
C 8.46484 0.136443 -1.70479
C 7.75444 1.07223 -1.6743
C -4.82177 1.89898 3.99404
C -4.01865 1.53889 4.85404
C -5.38792 16.5074 37.4303
C -4.87728 15.4372 37.8998
C 25.6925 -17.6251 7.56087
C 24.9093 -16.862 8.08792
C 16.3149 11.7588 -15.4668
C 16.1839 10.6009 -15.1798
C 9.51072 -6.90883 -0.657817
C 10.1594 -7.8848 -1.0993
C 8.97314 -5.89427 -0.306921
C 8.39629 -4.7958 -0.0446222
C 6.05314 2.97717 -1.68698
C 6.86159 2.12872 -1.6815
C -5.66659 2.37224 2.9989
C -5.12072 3.34829 2.22155
H -6.78714 2.21564 2.93208
C 1.91933 -9.86955 3.79421
C 1.58634 -11.0044 3.82927
C 6.78973 -3.4264 -3.15567
C 6.25195 -2.46177 -3.41542
C -1.16748 -0.0284041 8.71004
C -1.7179 0.455881 7.7322
C 5.80502 0.776599 1.65948
C 5.41521 1.98132 1.89914
C 5.50726 -1.28327 -3.80542
C 5.07967 -0.245873 -4.07337
C 6.25372 -0.309231 1.36687
C 6.84074 -1.48958 1.10038
C -9.99795 19.0316 -26.2221
C -10.3169 18.6442 -25.0981
C 0.416041 -0.865293 10.5426
C -0.418421 -0.448036 9.73406
C -2.3124 6.4959 -0.593268
C -3.12048 5.82209 0.188361
C -1.35812 7.00344 -1.25674
C -0.506934 7.58148 -1.95955
H 7.30203 -4.32796 -2.89254
C 37.8728 29.3922 36.5551
C 36.6509 29.2663 36.6241
C -3.91063 5.06019 0.886625
C -4.6133 4.25259 1.52551
C 4.30271 -6.39731 -1.59011
C 4.35191 -6.9198 -2.67798
C 3.57455 6.67719 1.805
C 4.07457 5.49514 1.98931
C 11.4342 -9.87534 -1.87987
C 10.7726 -8.88782 -1.50048
C 5.04121 3.176 2.05039
C 4.58646 4.35683 2.06518
C -5.97679 17.6418 37.3487
C -6.58585 18.809 37.4254
C 4.51532 4.94049 -1.98548
C 5.29849 3.96861 -1.82473
C 2.42854 8.75888 1.07395
C 2.96141 7.77737 1.51419
C -1.39144 8.82002 2.35024
C -2.14052 9.59454 1.99607
H 2.28504 -8.84418 3.8089
C 3.95456 1.9695 -4.54339
C 4.51486 0.971779 -4.2919
C 1.19797 10.5288 -0.142821
C 1.86968 9.72052 0.419077
C 0.91925 5.85339 3.5591
C 1.65125 4.9373 3.91083
C 8.2231 -0.0142813 -10.2475
C 8.51615 0.651549 -11.2084
C 32.9858 -4.64254 -17.1926
C 32.4157 -3.64724 -16.8437
C 11.394 -20.4929 -36.7498
C 10.9684 -20.1091 -35.6929
C 27.8493 7.15848 0.239239
C 26.8952 7.24435 0.982885
C -7.12512 1.2355 -29.1223
C -6.55338 1.67374 -30.0848
C 5.813 27.6993 21.3098
C 5.26111 28.6303 20.8176
C 9.29857 -28.6548 -22.549
C 9.7914 -27.5826 -22.8481
H 0.680773 9.15037 -2.91938
C 4.56564 -3.86829 2.82496
C 4.48879 -4.45173 1.72379
C 13.3985 -15.524 -3.97656
C 13.5734 -16.6876 -4.49228
C 4.39045 -5.05287 0.576926
C 4.29405 -5.74107 -0.48222
C 10.0354 2.44258 6.70029
C 11.0043 3.11277 6.52738
C 32.7792 15.4464 -29.0402
C 33.8306 14.905 -29.3156
C -36.6679 9.1139 -2.75935
C -36.1857 9.17031 -1.67017
C 12.7031 -13.2378 -3.18049
C 13.1188 -14.3602 -3.59873
C -0.538945 7.74726 2.77569
C 0.110996 6.8428 3.06348
C 33.9774 1.65449 26.5445
C 32.8156 1.52248 26.8108
C 29.709 11.0962 -1.63947
C 29.2965 11.8897 -0.789112
H -2.82464 10.3476 1.75175
C 33.2584 -8.65863 26.6949
C 32.9945 -9.37124 25.7505
C 34.4478 -39.4136 19.7376
C 34.8464 -39.3907 20.8772
C -16.436 -29.2955 25.8325
C -17.4252 -30.0048 25.6901
C 20.8797 25.7535 17.0319
C 21.7669 25.4615 17.8061
C 3.1404 24.9168 18.7011
C 3.30653 25.1456 19.9075
C 30.8431 1.96545 -9.6034
C 29.7365 2.3007 -9.31013
C 39.7015 -36.8447 5.17544
C 39.722 -37.4626 6.19835
C 3.2768 3.02959 -4.83646
C 2.63757 4.09624 -5.17938
C 11.9969 -10.8937 -2.36084
C 12.3917 -12.0211 -2.79557
C -13.0891 -30.921 -2.91756
C -12.9911 -30.1273 -3.7941
H -14.4256 -1.92502 32.098
C -20.8236 -34.6402 -31.332
C -19.5902 -34.5795 -31.223
C 31.4061 16.9308 -2.83056
C 30.2977 16.4996 -2.67665
C -27.9459 4.16631 17.7205
C -27.6132 3.01906 17.824
C 2.09977 23.7023 -18.0624
C 1.44417 24.152 -18.9871
C 39.2068 -18.5719 -10.8812
C 39.9366 -17.6301 -10.8803
C -30.2963 20.9523 -18.8088
C -30.1436 22.1228 -18.5299
C -34.3552 -17.4936 4.46646
C -35.3462 -16.8166 4.04864
C -38.2691 4.16492 0.418371
C -38.6948 5.19568 0.971558
C -32.1012 -38.0423 23.1377
C -32.5369 -37.5783 24.2491
228
Atoms. Timestep: 40000
O 0.969304 0.748145 3.28947
O 1.93728 1.40965 2.53404
O -0.357583 1.14135 3.36004
O -0.689249 2.31871 2.62403
O -1.25103 0.006 3.38995
O -2.47035 0.00682 2.63587
O -0.40576 -1.15736 3.30718
O -0.732764 -2.31256 2.54988
O 0.960244 -0.670082 3.23571
O 1.94853 -1.3868 2.47639
O 2.45217 0.0445355 -2.58078
O 1.22765 0.0177898 -3.32056
O 0.728472 2.315 -2.52859
O 0.417767 1.19379 -3.30014
O -1.87954 1.45602 -2.43567
O -0.946685 0.750392 -3.24157
O -1.86228 -1.41484 -2.56876
O -0.948191 -0.701948 -3.32844
O 0.740108 -2.34715 -2.58362
O 0.416535 -1.18992 -3.37149
O 2.94844 -0.734722 1.70765
O 2.91741 0.679748 1.77385
O 1.61648 2.61525 1.8568
O 0.25366 3.09186 1.86237
O -1.90597 2.33901 1.85324
O -2.72407 1.162 1.8272
O -2.77216 -1.11278 1.77354
O -1.96602 -2.29968 1.79616
O 0.24848 -3.0825 1.86287
O 1.58744 -2.61277 1.82201
O 2.78947 1.22898 -1.79847
O 1.94 2.30428 -1.76199
O -0.242618 3.04123 -1.7012
O -1.57716 2.53904 -1.6992
O -2.94101 0.722802 -1.82326
O -2.89907 -0.738818 -1.87375
O -1.5235 -2.56911 -1.83209
O -0.225271 -2.99038 -1.82442
O 1.93848 -2.32601 -1.81627
O 2.75236 -1.12834 -1.79515
O 3.51511 0.777256 -0.64229
O 3.16601 1.43497 0.593347
O 0.420661 3.39726 -0.506374
O -0.393749 3.4874 0.623991
O -3.16938 1.36448 -0.587351
O -3.35519 0.669005 0.59355
O -2.30275 -2.60683 -0.584865
O -1.71236 -3.08386 0.623125
O 1.71051 -3.04219 -0.615598
O 2.33393 -2.55867 0.591142
O 3.28013 -1.40718 0.507699
O 3.43646 -0.643583 -0.663994
O 2.4636 2.68133 0.671118
O 1.83679 3.0751 -0.535802
O -1.68077 3.00328 0.613226
O -2.41349 2.58702 -0.543344
O -3.38149 -0.733189 0.601485
O -3.1577 -1.45414 -0.619587
O -0.336055 -3.51381 0.652224
O 0.307743 -3.45926 -0.602783
C 5.34647 4.77162 -0.0600099
C 4.67093 5.75578 0.396839
H 34.4462 5.01285 32.4068
C 11.2454 31.7854 -0.133982
C 10.0542 31.8719 0.0359407
C 27.5089 14.8265 -1.92247
C 26.9699 13.7259 -2.10985
C -22.511 23.8707 12.8069
C -22.2127 24.3046 11.7387
C -4.20633 -0.083009 5.67347
C -3.92368 -1.18739 6.17397
C 33.571 5.1914 31.7504
C 32.703 5.33673 31.008
C 3.98227 6.7962 0.809818
C 3.22852 7.80259 1.2481
C 26.3504 12.6416 -2.30305
C 25.7731 11.5668 -2.42213
C 11.1101 -4.83282 -2.78605
C 11.5707 -5.82224 -3.05848
C 10.4008 -3.58286 -2.46854
C 9.8668 -2.60705 -2.21407
C 13.6743 -19.3285 -6.81824
C 13.0994 -18.346 -6.43267
H 11.9971 -6.79917 -3.35525
C 8.12176 -4.46127 0.475341
C 7.74259 -3.32225 0.916559
C 9.27355 -1.37123 -1.84583
C 8.65202 -0.375936 -1.48246
C -4.934 2.14441 4.80743
C -4.55728 1.02829 5.2
C -7.94872 15.8633 29.1865
C -8.04941 15.2021 28.1176
C 28.4419 -16.0223 3.79605
C 28.5045 -14.8667 4.10682
C 15.2344 8.93911 -21.832
C 16.2485 9.60321 -21.8299
C 9.19153 -7.82974 -0.747371
C 9.58752 -8.88924 -1.24958
C 8.84161 -6.72253 -0.329475
C 8.43628 -5.56449 0.151014
C 7.30192 1.6928 -0.969202
C 7.98308 0.708413 -1.19572
C -5.5184 3.31911 4.38957
C -4.57445 4.18577 3.85042
H -6.52001 3.65896 4.52921
C 1.00969 -7.6481 -6.5191
C 0.973748 -6.56896 -6.01166
C 5.3023 -3.45239 -1.45525
C 5.37085 -2.50359 -2.09397
C -3.51488 -3.41525 7.3336
C -3.75445 -2.2645 6.73081
C 6.36423 -0.237383 2.58292
C 5.83067 0.856113 3.02736
C 5.45514 -1.42742 -2.96134
C 5.60053 -0.470185 -3.59262
C 6.8629 -1.2416 2.04308
C 7.32963 -2.32323 1.48257
C -13.512 28.1883 -29.6591
C -13.8998 27.757 -28.5747
C -3.01461 -5.59067 8.64473
C -3.27506 -4.58991 7.95978
C -0.355114 6.60017 2.33523
C -1.51414 6.1021 2.65034
C 0.745979 7.0192 1.88403
C 1.94691 7.3789 1.59416
H 5.26366 -4.33522 -0.794841
C 37.9274 -39.6749 31.6465
C 38.6448 -39.6834 30.6488
C -2.62173 5.52577 2.85067
C -3.62436 4.9071 3.36124
C 3.25676 -6.39061 -1.92781
C 3.05706 -6.52328 -3.13455
C 3.41195 4.91241 4.41499
C 4.08647 3.96654 4.03494
C 10.5741 -11.04 -2.23482
C 10.0406 -9.98002 -1.75826
C 5.30681 1.92647 3.47936
C 4.70281 2.93291 3.76785
C -8.20206 16.5811 30.232
C -8.45729 17.2433 31.2063
C 5.98878 3.70243 -0.41737
C 6.65122 2.74377 -0.727854
C 2.02055 6.82205 5.21917
C 2.71193 5.85025 4.80761
C -0.502597 2.52467 5.82373
C -1.56305 2.89669 5.67292
H 1.15748 -8.63146 -6.95703
C 5.95437 1.66752 -4.9154
C 5.77478 0.594265 -4.28133
C 0.283414 8.62446 5.73488
C 1.15598 7.74717 5.53058
C 3.08158 0.864688 6.16047
C 4.07391 0.224609 6.13788
C 15.4641 6.13036 -0.908777
C 16.0648 7.0583 -1.38396
C 32.0923 -4.2579 -13.1575
C 33.2073 -4.24314 -12.7393
C 13.8618 -20.385 -32.491
C 13.5059 -20.2155 -33.6843
C 29.6369 10.4156 -0.317117
C 29.4193 10.9615 -1.36103
C -18.1974 11.1123 -38.3259
C -17.057 11.4527 -38.5394
C 3.44279 30.3202 7.39006
C 2.87089 31.3265 7.66215
C 11.2374 -27.0547 -23.5289
C 10.6851 -28.1319 -23.6666
H 3.67246 8.78591 1.59296
C 4.61023 -5.00296 2.65671
C 4.24681 -5.43985 1.59827
C 12.2692 -16.271 -5.22397
C 12.6357 -17.2744 -5.93901
C 3.93177 -5.79285 0.394291
C 3.60361 -6.15147 -0.754624
C 3.5208 0.935592 12.9581
C 4.08873 1.95411 13.2013
C 36.5948 10.7327 -22.291
C 36.362 11.8891 -22.0713
C -32.3938 21.5435 -6.48036
C -33.24 20.7854 -6.89252
C 11.6571 -14.2291 -3.9556
C 11.9325 -15.254 -4.50356
C 0.832174 1.97892 5.99198
C 1.85871 1.48112 6.1145
C 31.5841 5.57451 30.2514
C 30.5303 5.81945 29.6844
C 30.1487 9.87209 -5.27137
C 29.5636 9.7077 -4.24846
H -2.62363 3.13608 5.45037
C 30.1795 -12.1974 26.5197
C 29.349 -12.4347 25.6658
C 24.8757 37.1248 26.9765
C 25.4762 38.1766 27.0602
C -22.3229 -28.9417 24.5165
C -23.2568 -29.5735 24.0609
C 32.779 28.5674 12.0409
C 32.9722 27.8631 12.985
C 9.10034 26.9356 12.01
C 8.25233 26.9849 12.8857
C 22.2962 -6.46773 -16.9882
C 21.3616 -5.70882 -17.3052
C -35.2418 39.2048 12.1404
C -35.6859 -39.7699 12.6324
C 6.13568 2.76411 -5.48291
C 6.37428 3.89767 -5.94454
C 11.0489 -12.0906 -2.71697
C 11.3529 -13.1223 -3.31863
C -13.3529 -34.9175 4.89833
C -13.4659 -34.8868 3.71518
H -32.6137 -19.7197 -25.9799
C -10.9254 -25.0344 -37.6449
C -12.1092 -25.0954 -37.7488
C 32.0568 15.4741 -5.28384
C 33.2373 15.7201 -5.6398
C -25.2841 -1.60061 23.3247
C -25.0218 -2.77487 23.4502
C 9.58116 34.1547 -28.4027
C 8.46466 33.854 -28.7719
C -28.9724 -15.2144 -9.09289
C -29.4015 -15.5409 -10.284
C -37.7495 17.9772 -18.2773
C -36.9311 17.6101 -17.4499
C 35.393 -35.8256 11.5626
C 36.4342 -36.3621 11.969
C 31.9452 -0.218238 6.46909
C 32.9523 -0.718923 5.77974
C 35.2728 -32.6998 13.8584
C 34.791 -31.6231 14.0744
228
Atoms. Timestep: 60000
O 0.918481 0.767745 3.39404
O 1.95369 1.4561 2.67289
O -0.423128 1.13737 3.22767
O -0.747476 2.34527 2.62658
O -1.25103 0.006 3.38995
O -2.47035 0.00682 2.63587
O -0.414413 -1.15041 3.27507
O -0.731303 -2.36845 2.56606
O 0.907086 -0.685777 3.38431
O 1.93019 -1.4 2.6952
O 2.53404 -0.0255619 -2.37966
O 1.31234 -0.0671544 -3.20062
O 0.888132 2.28028 -2.43896
O 0.492674 1.09956 -3.16308
O -1.87645 1.391 -2.48565
O -0.903783 0.676753 -3.25275
O -1.92591 -1.4128 -2.50281
O -0.860107 -0.739252 -3.23616
O 0.893894 -2.33854 -2.44635
O 0.494469 -1.21865 -3.20581
O 2.96116 -0.704639 2.01469
O 2.95968 0.733759 1.94852
O 1.57521 2.58201 1.85881
O 0.25366 3.09186 1.86237
O -1.97362 2.38558 1.83896
O -2.75073 1.16808 1.78193
O -2.78472 -1.152 1.81651
O -1.97142 -2.36451 1.88031
O 0.24848 -3.0825 1.86287
O 1.58279 -2.60144 1.9004
O 2.95214 1.19634 -1.75167
O 2.08425 2.32809 -1.67204
O -0.0993579 2.97791 -1.75338
O -1.42494 2.56527 -1.72709
O -2.88532 0.684431 -1.76484
O -2.91548 -0.69639 -1.72497
O -1.53406 -2.53554 -1.69112
O -0.147026 -2.97958 -1.71575
O 2.08825 -2.31361 -1.70836
O 2.90739 -1.17324 -1.65508
O 3.47879 0.757489 -0.484157
O 3.28637 1.46985 0.740326
O 0.440057 3.4998 -0.554048
O -0.35416 3.51024 0.66033
O -3.15653 1.46879 -0.60461
O -3.31722 0.673218 0.571349
O -2.34737 -2.56959 -0.519082
O -1.81003 -3.13062 0.662617
O 1.78291 -3.11272 -0.508276
O 2.41243 -2.61376 0.730939
O 3.24821 -1.40962 0.785884
O 3.47077 -0.677078 -0.436847
O 2.42876 2.67238 0.691952
O 1.85716 3.11529 -0.517144
O -1.71071 3.0799 0.644615
O -2.21341 2.58013 -0.546322
O -3.38685 -0.737086 0.614479
O -3.20727 -1.45424 -0.583803
O -0.396816 -3.46333 0.622797
O 0.430387 -3.43048 -0.528175
C 5.6482 3.84606 0.206388
C 4.96623 4.85055 0.642011
H 29.9377 8.36257 37.7625
C 19.8116 29.6083 -8.06638
C 18.6275 29.7961 -7.96797
C 25.3614 9.40226 -1.71564
C 24.5527 10.2626 -1.37724
C -24.1592 12.984 13.7476
C -23.5381 11.9529 13.967
C -3.48528 -1.58804 5.74435
C -4.02857 -2.51323 5.01567
C 29.8069 8.65478 36.6901
C 29.6243 8.95785 35.6081
C 4.17462 5.65639 0.959966
C 3.23275 6.54579 1.3929
C 23.6298 11.1399 -1.03007
C 22.86 11.9127 -0.52839
C 9.82896 -5.72488 -4.36328
C 10.2568 -6.70567 -4.76546
C 9.30968 -4.55592 -3.79387
C 8.77726 -3.68771 -3.22175
C 11.0637 -18.7261 -6.79219
C 10.8703 -17.5723 -6.55061
H 10.6476 -7.64925 -5.13336
C 6.50776 -3.49452 0.144644
C 6.35471 -2.42645 0.839821
C 8.26546 -2.62856 -2.64656
C 7.79824 -1.4882 -2.16718
C -2.44972 0.0253939 7.27663
C -2.92117 -0.751587 6.55258
C -10.9514 15.4663 21.3623
C -11.5659 15.9001 20.4072
C 31.1994 -14.0985 0.139092
C 32.0554 -13.2128 0.0618813
C 15.8012 7.2141 -28.1587
C 14.6716 7.53252 -28.4446
C 6.98872 -6.72145 -1.70113
C 7.21461 -7.84543 -2.2176
C 6.87166 -5.67177 -1.04697
C 6.66948 -4.5754 -0.420954
C 7.04818 0.70071 -1.08535
C 7.3899 -0.452546 -1.64901
C -1.84086 0.888965 8.21193
C -1.08643 1.73064 7.4895
H -1.95915 0.83459 9.32789
C 6.43152 5.52745 -2.8917
C 5.60407 5.97195 -3.62077
C 4.12351 -3.72863 -4.00664
C 4.75805 -2.85711 -4.32926
C -5.11445 -4.47464 3.79988
C -4.61809 -3.48074 4.41219
C 6.14762 0.962324 2.659
C 6.20797 2.09619 3.26856
C 5.60835 -1.74187 -4.77755
C 6.35368 -0.864626 -5.01846
C 6.17686 -0.199903 2.09146
C 6.2237 -1.31676 1.55025
C -17.0003 37.2933 -33.0494
C -17.4681 36.8176 -32.0588
C -6.21145 -6.38398 2.51252
C -5.6749 -5.43163 3.14469
C 1.49665 4.83829 4.47425
C 0.861006 4.17455 5.36593
C 2.0286 5.42547 3.42974
C 2.50493 6.02273 2.4811
H 3.63788 -4.6382 -3.76505
C 39.1233 -28.8183 25.1714
C 39.4858 -28.6818 26.302
C 0.280481 3.39609 6.20533
C -0.372357 2.56537 6.94827
C 2.50619 -6.62425 -2.21448
C 2.33286 -6.90906 -3.37685
C 5.56341 6.18291 6.1156
C 5.87143 5.17591 5.37143
C 7.9137 -9.93428 -3.38403
C 7.50536 -8.87297 -2.77259
C 6.13599 3.18484 3.97428
C 6.06438 4.14964 4.67885
C -10.2276 15.208 22.3853
C -9.68634 14.8297 23.4039
C 6.06178 2.82054 -0.214798
C 6.52972 1.75465 -0.705709
C 4.86273 7.9747 7.68834
C 5.18799 7.10569 6.87466
C 3.1571 0.370224 5.93147
C 3.98274 1.09289 5.72773
H 7.14492 5.12559 -2.21734
C 7.93249 1.085 -5.21311
C 7.17926 0.134007 -5.17226
C 4.44552 9.58904 9.51515
C 4.67182 8.81402 8.62587
C 0.269886 -2.23002 6.91462
C -0.586369 -3.07781 7.21286
C 22.7013 12.2997 8.38992
C 23.4092 13.2888 8.37007
C 32.5138 -3.80215 -8.57298
C 32.4869 -4.84026 -9.16764
C 15.7383 -20.0121 -30.3178
C 16.6062 -20.5871 -29.6258
C 26.2318 18.0706 -5.33254
C 25.8185 18.7039 -4.40025
C -28.8734 21.0307 32.4661
C -27.8343 21.0783 33.1107
C 1.24656 31.4689 -6.01114
C 1.07961 32.1005 -4.97528
C 12.0942 -27.5706 -24.7023
C 12.6448 -26.5712 -24.2814
H 2.89593 7.46484 0.807744
C 3.0509 -5.72791 2.63782
C 2.93128 -5.91365 1.46002
C 10.2347 -15.2665 -5.7722
C 10.6353 -16.3189 -6.25957
C 2.85618 -6.20517 0.207427
C 2.66085 -6.40719 -0.991933
C -3.19399 -0.407404 18.3972
C -3.18249 0.616028 19.0393
C 40.0215 8.35199 -15.2147
C 39.2587 7.39162 -15.1611
C -29.4897 32.6803 -10.7984
C -28.9704 33.5474 -11.4607
C 9.20816 -13.1428 -4.79948
C 9.80646 -14.1719 -5.26467
C 2.08751 -0.637205 6.24167
C 1.27431 -1.40856 6.52675
C 29.453 9.37012 34.2685
C 29.3916 9.68813 33.098
C 25.1653 13.9428 -5.75627
C 24.338 13.1115 -5.94251
H 4.86567 1.7245 5.57635
C 26.9671 -15.7663 26.1828
C 25.8752 -15.4306 25.7442
C 15.8527 34.5375 34.2621
C 15.6646 34.9032 33.1201
C -28.2096 -28.6121 23.1891
C -29.0221 -29.1226 22.4598
C -35.3558 31.2176 7.27288
C -35.9195 30.3988 7.99669
C 14.2897 30.7544 5.19935
C 13.1609 30.3663 5.17879
C 13.6919 -14.7409 -24.4061
C 13.3381 -13.8537 -25.243
C -30.7057 36.4049 19.6185
C -30.6304 36.8093 18.4771
C 8.81985 2.03608 -5.25205
C 9.74699 2.84402 -5.26016
C 8.28697 -11.0736 -3.87467
C 8.64164 -12.1062 -4.33158
C -13.6417 -38.8636 12.3454
C -13.9115 -39.6469 11.5062
H 29.3016 -37.4133 -4.18237
C -3.46587 -15.6107 35.8701
C -2.28819 -15.5376 35.9703
C 31.0249 9.67202 -3.57317
C 32.0721 9.3599 -4.22855
C -22.5767 -7.32768 28.8809
C -22.5058 -8.54294 29.0607
C 16.6054 -35.5515 -38.8355
C 15.8599 -36.4 -38.3499
C -17.7756 -12.2907 -8.90665
C -18.2436 -13.049 -8.09916
C 35.709 14.2165 -16.9035
C 35.4381 13.118 -17.2941
C 26.9736 26.1611 20.7106
C 25.7688 26.3278 20.441
C 24.0036 -5.46752 11.2592
C 22.8635 -5.69952 11.7806
C 22.9133 -28.1555 3.39931
C 22.7172 -27.2741 2.50151
228
Atoms. Timestep: 80000
O 0.915778 0.724546 3.25552
O 1.90596 1.45202 2.55048
O -0.443912 1.11865 3.34044
O -0.752598 2.28571 2.53335
O -1.25103 0.006 3.38995
O -2.47035 0.00682 2.63587
O -0.439783 -1.16858 3.338
O -0.785747 -2.28233 2.50296
O 0.933788 -0.683614 3.30024
O 1.89536 -1.4366 2.58337
O 2.56849 -0.0139337 -2.59208
O 1.34118 0.0210618 -3.3284
O 0.819712 2.29743 -2.46524
O 0.443657 1.19554 -3.28051
O -1.88008 1.5097 -2.55973
O -0.910858 0.757127 -3.32596
O -1.80121 -1.36143 -2.57888
O -0.864112 -0.677821 -3.31265
O 0.848446 -2.27436 -2.61556
O 0.494042 -1.09928 -3.35271
O 2.92234 -0.776037 1.82867
O 2.89662 0.661937 1.86764
O 1.60479 2.63945 1.84887
O 0.25366 3.09186 1.86237
O -1.96496 2.29895 1.80744
O -2.80935 1.2206 1.87519
O -2.75987 -1.10713 1.75604
O -1.91055 -2.21334 1.73332
O 0.24848 -3.0825 1.86287
O 1.61513 -2.6593 1.86225
O 2.93811 1.16442 -1.83999
O 2.03737 2.28017 -1.73306
O -0.176224 3.0745 -1.7344
O -1.53975 2.67066 -1.79803
O -2.81722 0.77817 -1.81468
O -2.73792 -0.628884 -1.86576
O -1.48105 -2.54522 -1.88785
O -0.169071 -2.97706 -1.82136
O 2.05759 -2.28965 -1.83485
O 2.86388 -1.15454 -1.80665
O 3.45531 0.66364 -0.590743
O 3.23632 1.36365 0.658607
O 0.425309 3.50155 -0.502337
O -0.358734 3.46267 0.658488
O -3.15958 1.50089 -0.603502
O -3.37852 0.768271 0.628701
O -2.26553 -2.54369 -0.66396
O -1.61823 -2.9319 0.539314
O 1.78955 -3.05521 -0.648264
O 2.29927 -2.62442 0.635958
O 3.06186 -1.44816 0.600061
O 3.45291 -0.774189 -0.583708
O 2.41159 2.56297 0.682096
O 1.78323 2.99068 -0.53763
O -1.71706 3.02005 0.641058
O -2.32459 2.64908 -0.572806
O -3.32389 -0.670266 0.572085
O -3.10339 -1.37614 -0.661392
O -0.278048 -3.36761 0.583856
O 0.426823 -3.48821 -0.66266
C 5.71456 3.70459 0.0372345
C 5.28022 4.51462 0.914507
H 25.0662 12.6162 -38.6247
C 28.381 27.4323 -16.0052
C 27.2086 27.7164 -15.9758
C 23.3069 11.3235 -2.09458
C 24.0823 11.462 -3.02567
C -24.9709 0.709695 14.9724
C -25.7019 0.973883 15.9134
C -3.49214 -2.51274 4.65762
C -4.0967 -3.0387 3.6074
C 25.7916 12.6682 -39.4222
C 26.5589 12.6941 39.7649
C 4.90621 5.24343 1.90665
C 4.52125 6.05084 2.97831
C 24.8416 11.7464 -4.03352
C 25.5879 12.0237 -4.96071
C 5.68987 -5.04726 -7.18007
C 5.71058 -5.71972 -8.08582
C 5.71598 -4.13836 -6.03707
C 5.77682 -3.34952 -5.21422
C 2.1946 -13.5079 -11.6196
C 2.62969 -12.8331 -10.6797
H 5.82566 -6.33007 -8.99979
C 6.25465 -1.60289 0.528093
C 6.48697 -0.644785 1.25301
C 5.85614 -2.38473 -4.24037
C 6.00614 -1.42021 -3.57573
C -2.0497 -1.61974 6.47921
C -2.81618 -2.06908 5.55554
C -13.5545 14.933 14.1801
C -14.43 15.7599 14.3144
C 34.2027 -11.8968 -3.53616
C 35.3635 -11.8292 -3.97175
C 14.5156 6.0132 -34.9591
C 14.9464 4.93525 -34.5939
C 5.58439 -4.54096 -1.80969
C 5.44434 -5.44173 -2.70616
C 5.79394 -3.5008 -1.03287
C 6.05153 -2.52941 -0.270759
C 6.21366 0.718542 -2.23995
C 6.17522 -0.370226 -2.84344
C -1.21594 -1.19171 7.52903
C -0.428163 -0.0332509 7.24478
H -1.04318 -1.78765 8.43457
C 9.9668 10.9135 -5.91483
C 10.7052 10.9824 -4.94762
C 2.15855 -3.05565 -6.55091
C 2.3998 -1.94092 -6.42971
C -5.12296 -3.85972 1.49048
C -4.70673 -3.50539 2.60766
C 6.48267 2.38724 3.2721
C 6.6873 3.48666 3.94218
C 2.59862 -0.576499 -6.21969
C 2.67951 0.685959 -6.22167
C 6.48321 1.39273 2.58246
C 6.51197 0.375946 1.85867
C -20.4843 -33.5878 -36.4657
C -21.0453 -34.124 -35.5212
C -5.99621 -4.55671 -0.834329
C -5.58045 -4.22914 0.329016
C 2.3133 3.73053 5.10734
C 1.56485 2.80289 5.65386
C 3.05254 4.64909 4.52237
C 3.73493 5.29545 3.83483
H 1.90746 -4.13946 -6.72507
C -39.1023 -17.7352 20.5161
C 39.7497 -17.8925 20.1284
C 0.845428 1.88632 6.24155
C 0.248957 0.93425 6.78242
C 2.30952 -5.68981 -2.53581
C 2.03285 -5.76832 -3.72126
C 7.5829 7.54338 6.66881
C 7.32811 6.57016 5.98236
C 4.99111 -7.28094 -4.40437
C 5.22202 -6.44298 -3.5564
C 6.92856 4.54495 4.59501
C 7.09476 5.53162 5.27506
C -12.6079 13.9525 14.0664
C -11.619 13.2706 13.7941
C 5.9872 2.79529 -0.809347
C 6.12752 1.72179 -1.51501
C 8.34985 9.42185 8.01883
C 7.90172 8.49887 7.43797
C 3.43857 -1.22098 5.44799
C 4.00225 -0.383473 4.98787
H 9.3359 10.8349 -6.79024
C 2.84722 3.20462 -6.08612
C 2.76649 1.9634 -6.15941
C 9.43068 11.2833 9.36799
C 8.80465 10.4502 8.72892
C 1.0721 -3.69433 7.58217
C 0.357273 -4.43358 8.20695
C 30.1727 18.5818 17.4985
C 30.8765 19.4973 17.7945
C 32.9013 -4.61553 -4.71109
C 31.8016 -4.17375 -4.86602
C 18.9666 -20.5302 -26.9063
C 18.0182 -19.8264 -26.6334
C 19.1966 18.7307 -8.17962
C 20.2702 18.4208 -7.7172
C -39.253 30.9708 23.436
C -38.9218 30.695 24.5715
C -0.999811 32.8108 -19.0965
C -0.663861 32.6825 -17.9452
C 14.0383 -26.1199 -25.0433
C 13.5316 -26.9575 -25.7386
H 4.8973 7.11513 3.22401
C 3.66093 -5.55754 2.2568
C 3.34978 -5.72421 1.06799
C 3.41615 -11.3258 -8.75659
C 3.09181 -12.12 -9.74982
C 2.99797 -5.72702 -0.117354
C 2.64564 -5.6929 -1.31747
C -9.9182 -1.56781 23.9307
C -10.4571 -0.904581 24.7547
C -37.9637 5.28755 -8.07747
C -36.7649 5.25152 -8.3704