144
Atoms. Timestep: 0
O 0.950068 0.766729 3.39519
O 1.94109 1.46398 2.65933
O -0.396601 1.16505 3.32439
O -0.746562 2.28885 2.55663
O -1.25103 0.006 3.38995
O -2.47035 0.00682 2.63587
O -0.4026 -1.17452 3.39409
O -0.727852 -2.34535 2.59537
O 0.948817 -0.679469 3.41271
O 1.93663 -1.3932 2.66259
O 2.6274 -0.052532 -2.46997
O 1.3541 -0.0116705 -3.17984
O 0.907172 2.3333 -2.58753
O 0.458635 1.15627 -3.2192
O -1.91064 1.4599 -2.71904
O -0.83647 0.66083 -3.22593
O -1.78822 -1.47918 -2.56086
O -0.778867 -0.74161 -3.30893
O 0.899217 -2.34941 -2.47008
O 0.531152 -1.18832 -3.24461
O 2.94541 -0.657817 1.96013
O 2.97401 0.744422 1.9514
O 1.54737 2.54426 1.82262
O 0.25366 3.09186 1.86237
O -1.94253 2.25347 1.75692
O -2.80081 1.12563 1.76786
O -2.82676 -1.17446 1.85888
O -1.97608 -2.34774 1.83375
O 0.24848 -3.0825 1.86287
O 1.5972 -2.57577 1.8933
O 3.03516 1.12626 -1.70249
O 2.14876 2.23298 -1.7852
O -0.177404 2.94552 -1.84026
O -1.52566 2.52498 -1.88407
O -2.84157 0.666473 -1.88698
O -2.78436 -0.781192 -1.76844
O -1.43565 -2.6668 -1.77423
O -0.0697752 -2.99951 -1.7081
O 2.13515 -2.3712 -1.77722
O 2.92563 -1.22061 -1.68934
O 3.57775 0.738022 -0.42099
O 3.36455 1.48768 0.792389
O 0.441206 3.35683 -0.637678
O -0.337541 3.47226 0.576858
O -3.04254 1.32492 -0.607147
O -3.38262 0.61581 0.571503
O -2.25477 -2.68962 -0.609414
O -1.69028 -3.07389 0.633583
O 1.85937 -3.08058 -0.515764
O 2.44216 -2.67763 0.741884
O 3.20021 -1.41794 0.815174
O 3.38331 -0.686439 -0.432008
O 2.37887 2.50966 0.685173
O 1.80011 2.87219 -0.552281
O -1.62686 2.94426 0.571741
O -2.25291 2.52904 -0.654597
O -3.37026 -0.786927 0.595098
O -3.09372 -1.56123 -0.573784
O -0.340232 -3.55559 0.664163
O 0.472156 -3.47891 -0.488435
C -12.4987 -10.1298 -3.83867
C -13.412 -9.34892 -3.94307
H -27.0095 -16.8859 0.239631
C 2.15341 5.69165 3.15232
C 0.955226 5.71509 3.46378
C 9.8677 13.8129 -25.7172
C 9.35695 14.409 -26.7004
C 15.7532 32.4446 -35.5491
C 15.716 32.8898 -36.6784
C -38.9831 9.8051 26.8096
C -37.8791 10.3562 26.7138
C -27.0456 -17.956 0.632364
C -27.0916 -19.1014 0.968809
C -31.585 26.5358 32.6048
C -32.6095 27.0512 32.2921
C 8.77856 14.8999 -27.7002
C 8.30831 15.5447 -28.6189
C -28.0755 4.91488 7.26599
C -28.909 4.48411 7.88292
C -27.0384 5.58966 6.46534
C -26.1714 6.16076 5.81558
C 17.8087 23.2788 -3.35185
C 16.7246 23.5305 -3.85419
H -29.706 4.01282 8.46019
C 10.646 -12.2115 -11.9956
C 11.4061 -11.97 -11.1088
C 5.80243 3.66731 -0.217351
C 5.2667 4.17039 -1.15677
C -0.38474 17.9433 -6.31681
C 0.513063 17.1067 -6.26409
C 31.2766 -22.1664 33.9029
C 31.796 -21.212 33.2455
C -36.258 30.1196 4.98262
C -36.7955 30.842 4.18109
C -29.8532 35.6911 9.49286
C -29.4547 36.8388 9.52456
C 11.4336 24.8373 -6.97139
C 11.8715 24.1667 -6.0473
C 10.8008 25.4286 -7.96665
C 10.1516 25.9714 -8.83371
C 4.32422 5.24737 -3.20892
C 4.84252 4.76407 -2.19885
C -16.2981 -37.6427 8.27227
C -16.3794 -38.9084 8.3773
H -16.2879 -36.5725 8.05926
C -17.4831 9.24951 23.3239
C -17.5018 9.54199 24.4956
C -25.1565 37.2868 35.2724
C -25.2309 36.5764 36.2441
C -24.7153 -6.19321 4.41849
C -24.6374 -7.33353 3.99603
C -28.2432 1.74544 18.4986
C -28.7557 1.04034 17.6552
C 21.7024 10.2337 -36.9051
C 22.5648 11.0811 -37.0174
C 28.7376 -4.22776 -11.0077
C 28.25 -4.6304 -9.97982
C 3.28342 -22.4053 0.402819
C 3.35315 -21.8131 -0.632816
C -27.7887 -25.5497 9.34381
C -26.6458 -25.26 8.95059
C 19.6732 36.3795 -2.71333
C 19.584 37.5989 -2.46575
C -8.43081 -33.037 8.67419
C -8.61643 -34.015 8.0113
H 4.11869 16.9907 8.75833
C -28.2566 35.9106 -24.8321
C -29.458 35.8661 -24.9421
C 19.7299 5.3896 0.0235835
C 19.896 6.52939 0.308471
C -29.9651 8.45764 12.069
C -30.4005 7.53721 12.7703
C -7.65311 12.6862 -7.11171
C -8.71725 12.725 -6.47614
C 34.2981 -20.1317 24.7203
C 33.5534 -20.9488 25.33
C -22.704 25.1651 -19.0297
C -23.5594 25.3639 -19.9132
C -22.6655 8.15943 -8.93968
C -23.8284 8.2041 -9.27831
C -29.5134 -4.27765 4.63108
C -28.2853 -4.57049 4.54485
C -20.4358 35.9964 33.2901
C -21.2681 35.2694 33.766
144
Atoms. Timestep: 20000
O 0.944721 0.643873 3.33436
O 1.97527 1.32275 2.5986
O -0.352577 1.1438 3.2761
O -0.712958 2.40143 2.63313
O -1.25103 0.006 3.38995
O -2.47035 0.00682 2.63587
O -0.44251 -1.1679 3.28698
O -0.75484 -2.34069 2.53194
O 0.929666 -0.759678 3.27216
O 1.92158 -1.42271 2.58735
O 2.4109 -0.091489 -2.45977
O 1.23681 -0.0806626 -3.32026
O 0.793028 2.25419 -2.58208
O 0.378243 1.13325 -3.42309
O -1.97328 1.40418 -2.51789
O -0.983545 0.722872 -3.32121
O -1.94505 -1.41268 -2.49188
O -0.957707 -0.734755 -3.21104
O 0.814343 -2.34417 -2.53971
O 0.386417 -1.18051 -3.27282
O 3.06317 -0.80175 1.9125
O 3.04996 0.634699 1.92138
O 1.55866 2.48756 1.85382
O 0.25366 3.09186 1.86237
O -1.86693 2.32717 1.83479
O -2.71407 1.17572 1.85499
O -2.83713 -1.12225 1.89953
O -1.98419 -2.27031 1.86679
O 0.24848 -3.0825 1.86287
O 1.60216 -2.58078 1.81379
O 2.82813 1.10209 -1.79917
O 2.01157 2.29945 -1.7961
O -0.22863 2.92043 -1.81529
O -1.57159 2.58837 -1.79909
O -2.95727 0.691754 -1.76914
O -2.9532 -0.72925 -1.7273
O -1.52676 -2.5968 -1.80681
O -0.181523 -2.98312 -1.74172
O 2.01291 -2.3664 -1.73722
O 2.88304 -1.24835 -1.7164
O 3.50566 0.669036 -0.600881
O 3.20778 1.29785 0.642767
O 0.410995 3.39459 -0.6548
O -0.315406 3.44106 0.567207
O -3.22304 1.43905 -0.57068
O -3.4533 0.715588 0.671375
O -2.29668 -2.6734 -0.606027
O -1.7323 -3.04103 0.654996
O 1.77982 -3.05195 -0.532275
O 2.42127 -2.5701 0.624804
O 3.25504 -1.44484 0.628441
O 3.52175 -0.769565 -0.578372
O 2.33157 2.43322 0.611678
O 1.77921 2.96656 -0.574556
O -1.69431 3.05601 0.637228
O -2.31039 2.55608 -0.555219
O -3.38683 -0.685805 0.72735
O -3.08532 -1.43241 -0.481623
O -0.384961 -3.53546 0.709895
O 0.373443 -3.4809 -0.513398
C -12.0155 -12.9613 6.26015
C -13.0337 -12.5281 5.7806
H -29.8427 -15.2073 6.90134
C 0.705472 5.72433 -3.16743
C 1.86163 5.38236 -3.43762
C 1.46299 13.2699 -23.2177
C 1.2072 13.7077 -24.3344
C 14.358 18.8095 -35.6424
C 14.0167 18.7472 -34.4868
C 36.6447 10.9631 24.9131
C 36.8203 11.8131 25.7796
C -29.0864 -15.8256 7.42533
C -28.2335 -16.4665 7.97752
C -24.9622 -38.3235 32.2403
C -25.2076 -37.7026 31.2238
C 0.84683 13.9923 -25.5643
C 0.593254 14.5022 -26.6383
C -23.654 5.56602 11.7988
C -22.603 5.33301 11.4387
C -25.0192 5.78003 12.1128
C -26.2224 5.98685 12.2316
C 11.4602 26.3683 -4.75426
C 12.3823 26.0271 -4.05967
H -21.6704 5.07297 11.0289
C 6.20733 -15.1559 -13.3939
C 5.3004 -14.8131 -14.131
C 7.25433 -2.21058 -0.961476
C 6.94089 -1.21207 -0.350441
C -2.52912 19.3117 3.07813
C -1.60952 18.4916 3.0868
C 27.1836 -18.8494 25.1912
C 26.6136 -19.3535 26.1267
C -33.7345 33.5329 0.493485
C -33.0579 32.6321 0.0422008
C -30.5252 34.9546 1.26834
C -29.9581 34.0076 1.73939
C 12.3243 21.7962 -6.23995
C 11.2829 21.4716 -6.79231
C 13.468 22.1544 -5.83976
C 14.5714 22.3467 -5.33501
C 6.29762 0.950693 0.728373
C 6.58409 -0.0834484 0.19784
C -24.1519 28.1068 5.18504
C -24.4273 28.7225 4.19943
H -23.9525 27.4706 6.08877
C -21.3215 9.63136 14.6968
C -21.9364 9.16436 13.7838
C -35.3928 -32.5297 38.9462
C -34.7992 -33.5912 39.0057
C -24.1902 -2.55909 3.25858
C -23.7997 -3.59062 3.7208
C -22.6737 -7.62709 25.5677
C -23.5965 -7.5361 26.3462
C 38.2901 15.7911 39.3719
C 37.5196 16.5056 39.958
C 39.1982 -1.78067 -4.96032
C 39.6598 -1.32883 -5.97563
C -1.12817 -10.6551 -3.12592
C -0.376939 -10.0978 -3.9222
C -21.9449 -26.934 15.0829
C -21.7005 -25.731 15.1701
C 6.25813 38.6007 -2.04689
C 5.97232 39.7464 -2.51601
C -3.12226 -35.9838 12.143
C -2.9169 -36.986 11.4383
H -20.2539 20.4241 -4.91557
C -27.6687 -30.5522 -28.8402
C -26.7657 -30.9842 -29.5133
C 14.8369 6.5758 0.422674
C 15.3828 6.38658 -0.67467
C -35.8404 12.6273 6.59996
C -36.0798 11.4383 6.78563
C -11.3065 5.44306 -3.88354
C -10.253 6.07128 -4.11116
C -36.7403 -27.3799 16.827
C -37.8547 -27.8421 16.8159
C -12.6706 14.8474 -17.8519
C -11.8197 14.6625 -16.9738
C -23.9443 5.96878 -15.1027
C -23.1727 5.24658 -15.663
C -32.2479 5.17175 5.97383
C -31.5135 6.11162 6.0531
C -24.2288 31.7267 31.6942
C -24.2216 31.4694 32.8818
144
Atoms. Timestep: 40000
O 0.975618 0.770017 3.35913
O 1.94749 1.45872 2.66905
O -0.381138 1.1902 3.39634
O -0.731982 2.33199 2.61113
O -1.25103 0.006 3.38995
O -2.47035 0.00682 2.63587
O -0.369897 -1.11819 3.33907
O -0.713593 -2.31844 2.66754
O 0.950991 -0.652136 3.2848
O 1.86744 -1.30703 2.48184
O 2.41224 -0.092085 -2.66348
O 1.14195 -2.86574e-05 -3.30292
O 0.761728 2.23397 -2.51234
O 0.36874 1.12326 -3.30636
O -1.93919 1.41402 -2.49151
O -0.95692 0.737485 -3.24373
O -2.04044 -1.51419 -2.50084
O -1.03492 -0.733876 -3.22005
O 0.776655 -2.34542 -2.5629
O 0.308934 -1.19395 -3.34093
O 2.96807 -0.713054 1.85256
O 2.87713 0.751183 1.79615
O 1.59419 2.58833 1.82578
O 0.25366 3.09186 1.86237
O -1.96133 2.34291 1.93365
O -2.83279 1.22102 1.92879
O -2.83305 -1.19818 1.89742
O -1.9229 -2.28625 1.929
O 0.24848 -3.0825 1.86287
O 1.59291 -2.55822 1.88577
O 2.69853 1.09634 -1.88153
O 1.89531 2.25686 -1.81296
O -0.256562 3.07895 -1.86956
O -1.60543 2.59442 -1.78777
O -2.88353 0.69574 -1.74074
O -2.95285 -0.694822 -1.73026
O -1.5706 -2.60453 -1.70022
O -0.246735 -3.01947 -1.75615
O 1.94532 -2.36105 -1.77819
O 2.77544 -1.22575 -1.87035
O 3.31843 0.635022 -0.652615
O 3.15016 1.40686 0.585484
O 0.335744 3.49171 -0.61169
O -0.420311 3.3376 0.595856
O -3.18482 1.43968 -0.521058
O -3.37622 0.729461 0.698894
O -2.32433 -2.6161 -0.507486
O -1.70897 -2.98677 0.715751
O 1.77888 -3.06382 -0.546717
O 2.3375 -2.5833 0.648304
O 3.18279 -1.39775 0.644495
O 3.37573 -0.795128 -0.644161
O 2.27499 2.55225 0.575042
O 1.65992 3.01482 -0.611356
O -1.7817 3.01849 0.660487
O -2.28012 2.56862 -0.514111
O -3.35752 -0.673229 0.667722
O -3.17636 -1.43983 -0.513888
O -0.357104 -3.49235 0.648641
O 0.396044 -3.52236 -0.557544
C -11.6168 -15.7885 16.3405
C -12.5675 -15.7354 15.6008
H -31.905 -14.0861 14.152
C -3.07789 0.713936 -6.33379
C -3.91821 0.737818 -5.4946
C -7.03255 12.7796 -20.7922
C -7.09708 13.0136 -22.0276
C 12.3299 4.9713 -33.5151
C 12.9381 4.69817 -34.5075
C 32.378 12.6649 23.5514
C 31.376 12.7363 24.2995
C -30.84 -13.9015 14.4469
C -29.7408 -13.5591 14.7648
C -17.9665 -23.1427 31.5544
C -17.2746 -22.8746 30.5794
C -7.02307 13.1452 -23.3267
C -7.07163 13.3173 -24.5779
C -25.0052 -0.201545 9.58905
C -24.8673 -1.13941 10.1926
C -25.4607 0.957559 8.76153
C -25.9414 1.88579 8.14055
C 9.28929 20.6283 -5.95099
C 8.20478 21.1082 -6.24402
H -24.7912 -2.06616 10.7306
C 0.0534747 -17.5078 -16.1966
C 0.868261 -18.2715 -15.7662
C 5.6476 -6.36147 1.74709
C 4.42702 -6.29201 1.93202
C -4.66335 20.6765 12.501
C -3.76044 19.8912 12.485
C 21.9961 -16.3922 18.2467
C 22.4892 -16.6148 17.178
C -36.1282 31.4908 -6.9094
C -36.2561 31.7345 -5.72845
C -24.3932 37.1005 -4.14103
C -25.3822 36.4371 -4.4091
C 14.0494 23.2559 -4.43537
C 14.84 23.9342 -5.09896
C 13.2765 22.4524 -3.91433
C 12.5145 21.7084 -3.35737
C 1.97162 -5.88434 2.40654
C 3.14589 -6.0857 2.19568
C -32.4485 14.6042 0.726872
C -32.0209 15.2463 1.77088
H -33.0108 14.3515 -0.203985
C -17.5677 20.9112 19.6747
C -16.9099 21.3699 20.6054
C 34.6525 -22.8595 -37.34
C 35.338 -23.1999 -38.2819
C -23.7521 0.938517 2.37877
C -23.1777 0.572307 3.43296
C -18.1563 -16.9321 33.5692
C -17.343 -16.2517 34.1664
C -25.9363 22.1666 36.2966
C -26.5871 21.1557 36.2588
C -29.3565 1.55393 -0.93493
C -29.8261 1.10781 0.0915662
C -5.26146 0.976589 -10.7668
C -5.11224 -0.216039 -11.0681
C -15.9387 -27.6041 20.8995
C -16.875 -26.9237 21.3594
C -7.26028 -38.952 -1.45394
C -7.64253 -38.315 -2.49034
C 2.26516 -39.003 15.5798
C 2.74713 -39.9079 14.9245
H 35.2936 23.8706 -18.6596
C -25.5496 -17.6944 -34.0058
C -25.5917 -17.05 -32.9608
C 10.6128 7.54054 -0.553547
C 10.1636 6.46931 -0.284802
C 38.6982 16.248 1.16099
C 38.7539 15.0618 0.77926
C -13.0598 -0.711644 -1.06978
C -13.7064 -1.72649 -1.30889
C -27.9737 -34.7366 8.8815
C -28.9986 -34.6826 8.28965
C -0.890572 4.16078 -14.917
C -1.73519 4.25527 -15.7869
C -24.0469 2.67537 -22.1348
C -23.6957 3.37153 -21.2282
C -34.7683 15.4612 7.26365
C -35.2421 16.5475 7.40554
C -28.4981 27.5723 30.6667
C -27.6395 28.0539 31.3464
144
Atoms. Timestep: 60000
O 0.985282 0.752893 3.33269
O 1.87058 1.40876 2.51004
O -0.398129 1.15684 3.30997
O -0.751619 2.33542 2.58673
O -1.25103 0.006 3.38995
O -2.47035 0.00682 2.63587
O -0.42302 -1.1788 3.42284
O -0.684891 -2.26212 2.55267
O 0.909498 -0.618525 3.32123
O 1.90042 -1.32166 2.64337
O 2.35584 0.00311598 -2.40281
O 1.14142 -0.00490253 -3.16153
O 0.702665 2.30259 -2.39523
O 0.342299 1.14587 -3.16336
O -2.02535 1.44266 -2.53081
O -1.04024 0.677817 -3.2228
O -2.00891 -1.49626 -2.56773
O -1.00749 -0.73399 -3.29802
O 0.724529 -2.31367 -2.50392
O 0.305251 -1.18763 -3.24172
O 2.92793 -0.674492 1.83232
O 2.95925 0.730721 1.83784
O 1.61352 2.61558 1.85451
O 0.25366 3.09186 1.86237
O -2.01174 2.34496 1.90318
O -2.79943 1.1901 1.88973
O -2.68246 -1.18769 1.83521
O -1.83754 -2.31714 1.76117
O 0.24848 -3.0825 1.86287
O 1.51854 -2.49711 1.86445
O 2.85152 1.22803 -1.79944
O 1.94961 2.33874 -1.75592
O -0.292118 2.99571 -1.73522
O -1.62938 2.64464 -1.86444
O -2.97633 0.643894 -1.78125
O -2.88944 -0.709733 -1.74616
O -1.53587 -2.59498 -1.79646
O -0.213216 -3.06555 -1.82232
O 2.00789 -2.32293 -1.82763
O 2.79202 -1.1354 -1.72493
O 3.42251 0.723647 -0.566009
O 3.20115 1.48246 0.64145
O 0.340792 3.5243 -0.506934
O -0.394016 3.39138 0.615557
O -3.22434 1.43108 -0.583489
O -3.40256 0.739424 0.658078
O -2.24599 -2.5492 -0.58093
O -1.6493 -3.09167 0.574523
O 1.76857 -3.04071 -0.582256
O 2.30637 -2.57405 0.662101
O 3.17939 -1.44326 0.670661
O 3.33488 -0.685589 -0.520522
O 2.40277 2.71558 0.659429
O 1.73208 3.1221 -0.546646
O -1.79608 3.00561 0.636675
O -2.36639 2.58746 -0.593567
O -3.34113 -0.68673 0.66264
O -3.07365 -1.40207 -0.531599
O -0.314123 -3.63952 0.629828
O 0.420946 -3.53185 -0.618165
C -11.2888 -18.6121 26.3651
C -12.0306 -18.946 25.4763
H -32.7675 -12.8122 21.6289
C -5.03658 -4.77357 -1.5091
C -4.6667 -4.77225 -0.341897
C -15.5657 12.3881 -18.5937
C -15.2613 12.2247 -19.7733
C 11.4817 -9.39619 -33.3131
C 10.6797 -8.8206 -32.6028
C 27.4578 14.4312 22.6984
C 26.5857 13.5951 22.3107
C -32.2759 -11.8315 21.5797
C -31.6664 -10.8105 21.4214
C -11.0258 -7.16179 33.0052
C -9.85335 -7.43328 32.7092
C -14.9309 12.1739 -21.0476
C -14.7203 12.1761 -22.2253
C -25.9655 -4.03983 4.90093
C -26.9097 -4.19921 5.51386
C -24.7112 -3.83358 4.25844
C -23.5601 -3.73852 3.88563
C 14.8636 16.123 -1.95015
C 14.0758 15.9681 -2.84879
H -27.8778 -4.30577 6.07759
C -4.52694 -21.3271 -18.1646
C -5.13696 -20.2623 -18.236
C -1.38769 -6.49658 1.9409
C -0.803375 -6.62824 0.892058
C -6.81793 22.0585 21.9245
C -5.89086 21.2734 21.882
C 17.7049 -14.3566 9.35346
C 17.4688 -13.4547 10.1786
C -38.4568 29.9633 -12.3869
C -39.0063 30.5559 -13.2705
C -19.5641 38.4208 -9.91036
C -20.0162 39.459 -10.35
C 9.43762 23.7501 -5.27444
C 8.36072 24.0074 -5.86353
C 10.5322 23.3005 -4.76274
C 11.59 22.8619 -4.28162
C 0.375911 -6.86572 -1.27942
C -0.207125 -6.80992 -0.225647
C 39.6912 1.88339 -1.80952
C 39.464 0.792415 -2.40389
H -40.0395 2.94057 -1.57093
C -12.544 33.1012 26.4961
C -13.1757 32.6259 25.5605
C 25.0525 -13.3603 -34.1193
C 25.121 -12.6381 -35.0766
C -19.3437 3.9067 9.95034
C -20.0563 2.9442 9.95952
C -12.5181 -26.2138 39.7194
C -11.6443 -26.4044 38.9265
C -10.9243 27.3739 33.167
C -9.9444 26.9929 32.5962
C -24.1694 3.73915 0.736024
C -23.4102 2.79206 0.861246
C -8.87788 9.24837 -19.7393
C -7.78049 9.82219 -19.6881
C -10.4714 -27.864 26.9832
C -11.5111 -28.5264 27.281
C -20.9051 -36.6094 -0.974423
C -21.2901 -36.5759 -2.11118
C 7.6495 37.9645 19.0074
C 8.41388 37.1835 18.4195
H 10.8419 27.317 -32.4032
C -23.5079 -3.75958 -37.4243
C -24.3405 -4.1936 -38.1552
C 5.51546 6.92033 -1.17178
C 5.24906 7.55326 -0.199642
C 33.4511 19.5681 -4.22937
C 33.7855 18.7334 -5.05355
C -15.9916 -8.73092 1.29981
C -15.9793 -7.65957 1.93779
C -19.381 38.0155 0.720302
C -19.8095 38.6722 -0.261228
C 8.9284 -6.41718 -13.5633
C 9.78316 -6.41763 -12.6747
C -23.6118 0.438297 -27.7895
C -24.7564 0.440321 -28.1703
C -37.5413 26.5733 8.2304
C -38.8129 26.4659 8.27138
C -32.3189 23.6571 29.9985
C -31.4944 24.3802 29.4698
144
Atoms. Timestep: 80000
O 0.916289 0.678043 3.41145
O 1.88584 1.39476 2.64282
O -0.41935 1.17151 3.4017
O -0.75672 2.35936 2.63555
O -1.25103 0.006 3.38995
O -2.47035 0.00682 2.63587
O -0.454398 -1.22065 3.38949
O -0.787089 -2.35184 2.55275
O 0.913071 -0.778086 3.35999
O 1.8755 -1.41047 2.51356
O 2.47939 0.0725362 -2.61246
O 1.24471 0.12002 -3.34909
O 0.846487 2.40309 -2.5447
O 0.45143 1.2374 -3.3702
O -1.92068 1.50414 -2.58722
O -0.930406 0.794797 -3.35851
O -1.96116 -1.42239 -2.50583
O -0.98846 -0.628112 -3.20835
O 0.714051 -2.24468 -2.62449
O 0.390644 -1.03591 -3.27963
O 2.86287 -0.657577 1.79007
O 2.95166 0.785376 1.93221
O 1.5638 2.51374 1.83534
O 0.25366 3.09186 1.86237
O -1.94635 2.35359 1.85944
O -2.7904 1.19096 1.88606
O -2.88544 -1.19024 1.93559
O -2.02996 -2.34262 1.85725
O 0.24848 -3.0825 1.86287
O 1.53682 -2.5817 1.79893
O 2.88019 1.2081 -1.78483
O 2.04949 2.38247 -1.83346
O -0.141776 3.07 -1.80807
O -1.54878 2.63476 -1.83847
O -2.88081 0.773741 -1.81613
O -2.96123 -0.672362 -1.77037
O -1.61184 -2.59439 -1.83069
O -0.259362 -2.98906 -1.87901
O 1.93693 -2.25783 -1.89746
O 2.7835 -1.09096 -1.8307
O 3.45908 0.695488 -0.607881
O 3.32623 1.44376 0.670275
O 0.439444 3.55922 -0.591361
O -0.273651 3.44213 0.604098
O -3.11162 1.40141 -0.584579
O -3.38346 0.741363 0.653707
O -2.32891 -2.51026 -0.589028
O -1.69611 -2.9856 0.600605
O 1.68873 -2.98784 -0.675799
O 2.28975 -2.54004 0.552605
O 3.23097 -1.43899 0.63476
O 3.47126 -0.739868 -0.581189
O 2.37074 2.52408 0.654529
O 1.77276 2.96355 -0.611462
O -1.62678 3.0067 0.602654
O -2.20767 2.53836 -0.596534
O -3.36117 -0.667313 0.699873
O -3.17124 -1.33895 -0.510981
O -0.313395 -3.40886 0.545397
O 0.365682 -3.40583 -0.721806
C -11.0156 -21.4642 36.3207
C -11.436 -22.1376 35.4153
H -33.2285 -10.4301 29.1435
C -6.18926 -0.982911 -2.14413
C -6.41105 0.229438 -2.07039
C -23.6861 11.8137 -16.4752
C -23.1557 11.4377 -17.5414
C 9.09668 -22.657 -31.7492
C 9.95895 -23.4387 -32.0608
C 21.9378 15.624 21.5821
C 22.3976 15.0267 20.5859
C -33.4944 -9.45346 28.6619
C -33.8421 -8.46438 28.1217
C -3.77682 8.72401 35.091
C -2.91796 8.06064 35.6576
C -22.6027 11.1884 -18.6811
C -21.9955 10.8162 -19.6866
C -24.9757 -6.71666 -0.888678
C -25.3688 -5.81134 -1.45861
C -24.5234 -7.85397 -0.129267
C -24.0766 -8.74153 0.527916
C 20.4654 11.3365 2.00716
C 20.9979 11.3505 3.09824
H -25.7182 -4.93284 -1.93804
C -10.2622 -23.1306 -20.269
C -9.98459 -24.2674 -20.5683
C -3.5268 -7.06195 1.15629
C -2.29593 -6.98287 1.03279
C -8.97054 23.4369 31.3481
C -8.02211 22.6586 31.274
C 12.9709 -10.698 1.98536
C 12.8936 -11.9189 1.65816
C 38.3505 29.3682 -19.2609
C 39.109 28.4456 -19.4127
C -15.2177 -39.1301 -16.1498
C -14.1692 -38.647 -15.8144
C 6.16265 24.2377 -5.90104
C 6.49846 24.4073 -4.69846
C 5.83754 23.8938 -7.10257
C 5.5841 23.7103 -8.36587
C 0.226284 -6.7749 1.07448
C -0.99672 -6.88125 1.05226
C 31.3499 -12.6273 -5.42118
C 31.5785 -11.4222 -5.26054
H 31.1852 -13.7113 -5.74812
C -8.77932 -35.6628 31.4465
C -8.18298 -35.1676 32.385
C 15.4896 -3.49373 -31.3888
C 14.8722 -2.44906 -31.3829
C -14.5961 5.35015 19.5625
C -14.9001 4.1468 19.6588
C -6.01294 -35.6009 -35.6424
C -6.64172 -36.4125 -36.2587
C 5.2185 32.1378 29.3747
C 5.55738 33.2729 29.5955
C -20.934 4.54408 1.05298
C -19.9252 4.40827 0.437053
C -11.5778 18.5754 -28.7109
C -12.5627 19.2194 -28.4799
C -5.6015 -28.5214 33.2319
C -5.55723 -29.7236 33.0343
C -34.7382 -36.1646 0.360801
C -34.9842 -36.7817 -0.637055
C 13.0798 34.8904 22.4019
C 14.0318 34.3182 21.946
H -13.6033 30.7626 33.8564
C -22.892 9.42811 37.9085
C -21.6647 9.40264 37.9039
C -1.15555 6.65586 1.76419
C -1.47708 6.49385 0.579418
C 28.2481 22.762 -9.72807
C 28.7757 22.5293 -10.7751
C -18.901 -14.8303 4.80514
C -18.2838 -15.5009 4.04719
C -11.0302 32.9847 -9.33356
C -10.1423 33.6532 -8.86924
C 20.4032 -16.9954 -10.437
C 19.5672 -17.0953 -11.2989
C -24.9125 -1.79126 -34.0164
C -24.0807 -2.49676 -34.5393
C 38.7903 37.6305 9.22532
C 38.5154 36.4315 9.1033
C -35.703 20.1222 29.0572
C -35.7824 20.3266 27.8686
144
Atoms. Timestep: 100000
O 0.964679 0.739709 3.40521
O 1.88674 1.4861 2.62665
O -0.402184 1.16785 3.43142
O -0.690562 2.26741 2.60503
O -1.25103 0.006 3.38995
O -2.47035 0.00682 2.63587
O -0.417921 -1.14232 3.30889
O -0.749868 -2.28904 2.55656
O 0.965059 -0.729411 3.35075
O 1.98841 -1.39009 2.61324
O 2.44934 0.0574437 -2.45402
O 1.28724 0.100754 -3.23934
O 0.785599 2.29973 -2.41966
O 0.4518 1.25483 -3.27028
O -1.91537 1.50429 -2.45492
O -0.914394 0.790926 -3.24419
O -1.90473 -1.35447 -2.60006
O -0.871036 -0.655611 -3.28524
O 0.949821 -2.22737 -2.54235
O 0.523242 -1.08616 -3.31481
O 3.00725 -0.649613 1.96041
O 2.9441 0.79768 1.863
O 1.61547 2.6191 1.8536
O 0.25366 3.09186 1.86237
O -1.90992 2.29158 1.86212
O -2.79425 1.17748 1.83002
O -2.75113 -1.09346 1.75671
O -1.95779 -2.25206 1.76933
O 0.24848 -3.0825 1.86287
O 1.57016 -2.52232 1.86756
O 2.81912 1.2215 -1.66884
O 1.97089 2.38175 -1.65827
O -0.228067 3.02195 -1.71036
O -1.56985 2.65974 -1.70911
O -2.89696 0.727177 -1.76763
O -2.86824 -0.684578 -1.79453
O -1.40438 -2.44544 -1.82665
O -0.0739577 -3.00167 -1.87921
O 2.11615 -2.28587 -1.74866
O 2.91854 -1.12171 -1.71731
O 3.44452 0.702408 -0.482132
O 3.22238 1.5141 0.624514
O 0.387762 3.57749 -0.515563
O -0.383973 3.5393 0.666173
O -3.08461 1.44348 -0.54196
O -3.41003 0.710045 0.615192
O -2.21579 -2.61729 -0.625486
O -1.66151 -3.06615 0.58558
O 1.8677 -3.04817 -0.564613
O 2.3358 -2.54545 0.696396
O 3.21087 -1.40498 0.749854
O 3.50149 -0.724721 -0.455951
O 2.39019 2.68015 0.660534
O 1.75547 3.10596 -0.487852
O -1.6906 3.15353 0.693023
O -2.32392 2.67912 -0.469971
O -3.43569 -0.725465 0.576343
O -3.06403 -1.46054 -0.643034
O -0.299572 -3.40666 0.577215
O 0.498335 -3.45973 -0.638701
C -10.7627 -24.3802 -33.7755
C -10.8151 -25.2838 -34.5689
H -33.8742 -6.78777 36.0383
C -6.51115 -0.163936 -0.419588
C -6.29568 -0.131427 -1.63459
C -31.8037 11.1328 -14.6132
C -30.9404 10.6944 -15.3246
C 8.37792 -37.4435 -30.802
C 7.56778 -36.5686 -30.8992
C 16.7344 16.3875 19.7508
C 17.88 16.8911 19.5724
C -34.8415 -6.7325 35.5911
C -35.8785 -6.56026 35.0463
C 3.76583 24.4095 37.3707
C 3.74276 23.7969 38.4188
C -30.1207 10.1747 -16.1724
C -29.4663 9.53894 -17.0161
C -23.5543 -10.4828 -6.0121
C -22.5014 -10.2927 -6.39489
C -24.8971 -10.6462 -5.45214
C -25.9426 -10.6402 -4.89114
C 27.1223 6.57308 8.10595
C 26.8817 6.69755 6.91697
H -21.5109 -10.0552 -6.8215
C -15.4567 -27.1224 -22.937
C -15.3871 -26.0919 -22.3428
C -2.17081 -5.99203 -2.75551
C -2.60122 -6.049 -1.63047
C -11.124 24.8234 -39.21
C -10.1977 24.0634 -39.2951
C 8.07702 -9.2518 -5.96059
C 8.46588 -8.16379 -6.30567
C 36.3405 27.3278 -26.3904
C 36.0348 27.7769 -25.3168
C -9.72564 -36.1644 -22.0302
C -9.45411 -37.2639 -21.6536
C 2.39097 24.1848 -8.31067
C 2.80846 23.3019 -9.01315
C 1.81277 25.1204 -7.60003
C 1.21171 25.9741 -7.03749
C -3.64833 -6.66976 0.561119
C -3.13794 -6.33971 -0.474596
C 23.0241 -24.4625 -8.41266
C 23.0308 -25.4402 -7.65875
H 22.8919 -23.512 -9.00372
C -6.07752 -24.7488 37.3175
C -5.84588 -25.7396 36.6493
C 5.59482 6.93296 -28.6596
C 4.92869 7.20679 -27.6793
C -9.88143 6.67573 29.1959
C -9.69773 5.47081 29.3629
C -0.0830573 34.2434 -31.5734
C -1.04841 34.3222 -30.8622
C 22.3091 37.8255 25.1153
C 21.2557 38.0014 25.655
C -17.2888 5.29046 1.11915
C -16.848 6.06418 0.267665
C -15.7828 28.8612 -37.3602
C -15.9229 27.6626 -37.6399
C 1.11587 -28.4609 40.1805
C 2.28911 -28.4989 39.7608
C 31.3744 -35.828 1.49987
C 31.3658 -36.9234 1.04339
C 17.9432 32.0448 26.3905
C 19.1294 31.8589 26.2854
H -38.0809 34.2122 20.0969
C -20.2107 22.5838 33.2175
C -21.05 23.0665 33.9762
C -5.21616 3.03016 3.58359
C -4.78205 3.00257 2.46711
C 23.1117 25.9006 -15.3864
C 23.6857 26.3899 -16.352
C -20.6929 -22.1672 6.92537
C -21.7214 -22.1158 7.54791
C -1.54178 28.7905 -18.797
C -1.6154 27.8286 -18.0974
C 30.5431 -28.7125 -9.56484
C 31.2982 -28.1472 -8.82789
C -24.9516 -5.09664 38.9525
C -24.6673 -4.36473 -40.1221
C 34.9714 -32.1422 10.1327
C 35.9858 -32.7448 10.0234
C -39.13 16.6909 27.4973
C -40.038 16.1593 26.8825
144
Atoms. Timestep: 120000
O 0.961038 0.69981 3.43073
O 1.95928 1.40294 2.69298
O -0.429478 1.17411 3.38997
O -0.720312 2.3687 2.67482
O -1.25103 0.006 3.38995
O -2.47035 0.00682 2.63587
O -0.391671 -1.14114 3.38343
O -0.739741 -2.34479 2.64764
O 0.922367 -0.705605 3.41845
O 1.91802 -1.41856 2.6859
O 2.43054 -0.123734 -2.40727
O 1.24748 -0.171409 -3.18242
O 0.837546 2.12412 -2.5192
O 0.452042 0.971028 -3.22335
O -1.85405 1.32932 -2.5006
O -0.930953 0.593526 -3.23269
O -2.00986 -1.45177 -2.44757
O -0.981682 -0.830372 -3.23833
O 0.747977 -2.46894 -2.5046
O 0.406649 -1.31326 -3.3026
O 2.86752 -0.76164 1.86496
O 2.84451 0.648167 1.89186
O 1.59683 2.55692 1.86655
O 0.25366 3.09186 1.86237
O -1.86657 2.35796 1.86308
O -2.7347 1.18877 1.91128
O -2.81008 -1.14187 1.91475
O -1.94539 -2.31526 1.8904
O 0.24848 -3.0825 1.86287
O 1.63349 -2.63493 1.93445
O 2.92458 1.04236 -1.72822
O 2.09815 2.22674 -1.77734
O -0.108435 2.85884 -1.76198
O -1.41122 2.42176 -1.75186
O -2.94031 0.724257 -1.7815
O -2.9462 -0.702866 -1.73933
O -1.59488 -2.54485 -1.68676
O -0.263525 -3.10243 -1.75395
O 1.94887 -2.36793 -1.70352
O 2.88541 -1.25214 -1.73545
O 3.55131 0.63833 -0.536453
O 3.26492 1.35043 0.693776
O 0.459482 3.39831 -0.558074
O -0.313779 3.5824 0.658839
O -3.09403 1.48248 -0.566357
O -3.36819 0.877474 0.675531
O -2.33732 -2.53176 -0.476926
O -1.71631 -3.04731 0.706731
O 1.67104 -3.06686 -0.47095
O 2.34681 -2.5977 0.68499
O 3.21101 -1.46554 0.701809
O 3.46803 -0.795906 -0.534504
O 2.36767 2.48782 0.661258
O 1.80445 2.92363 -0.561151
O -1.66276 3.10673 0.678047
O -2.18688 2.54371 -0.591783
O -3.31638 -0.591558 0.679599
O -3.22745 -1.37973 -0.54693
O -0.430176 -3.61219 0.714968
O 0.300189 -3.60117 -0.517403
C -10.5167 -27.3571 -23.9357
C -10.1872 -28.3663 -24.502
H -35.7648 -3.17038 -37.524
C -8.55099 -0.611409 -1.32186
C -9.03968 0.42385 -1.00016
C -39.6682 10.4605 -12.7302
C -38.8027 9.81139 -13.2485
C 6.00174 29.3368 -29.9576
C 6.67291 28.4516 -29.4761
C 12.3844 17.535 17.8006
C 12.5148 18.3699 18.6795
C -36.5736 -3.91612 -37.6898
C -37.4232 -4.75244 -37.7893
C 11.2902 39.8803 40.0043
C 10.4132 39.729 -39.1768
C -37.8195 9.13266 -13.7732
C -36.9133 8.42346 -14.1221
C -23.348 -14.2915 -10.5407
C -23.0347 -15.1692 -9.87507
C -23.7931 -13.2192 -11.3782
C -24.2181 -12.248 -11.9573
C 33.3073 2.05798 11.8706
C 33.2298 1.80193 13.0639
H -22.7137 -15.9453 -9.17686
C -20.5134 -29.1112 -24.4506
C -20.9207 -29.9159 -25.2693
C 0.424747 -7.00901 -2.19863
C 0.584293 -6.49662 -3.2574
C -13.7022 26.4679 -29.5594
C -12.7532 25.7734 -29.7488
C 3.89557 -5.77863 -14.5147
C 3.33072 -6.43865 -13.651
C 33.855 25.9888 -31.8434
C 33.4391 26.4086 -32.8896
C -3.93958 -34.3906 -27.4978
C -5.03939 -34.6912 -27.8984
C -2.4343 25.5464 -9.66011
C -3.57967 25.9521 -9.89645
C -1.31081 24.9898 -9.34304
C -0.300617 24.4237 -8.95161
C 1.11154 -5.16153 -5.35528
C 0.842695 -5.83773 -4.35521
C 14.5837 -36.8855 -9.54149
C 14.4159 -36.3828 -10.6881
H 14.5334 -37.3532 -8.55458
C -3.36236 -16.4483 -37.9609
C -4.41265 -15.9428 -38.3369
C -4.64227 17.4897 -25.4116
C -4.66057 16.7206 -24.4983
C -5.15675 7.92773 38.8338
C -4.51133 6.86681 39.0507
C 4.22879 25.6966 -27.5907
C 4.48013 26.834 -27.244
C 38.7841 -37.3682 20.634
C 37.7947 -38.0418 20.8623
C -13.4326 6.35771 0.81056
C -13.9842 7.39647 0.473169
C -19.8351 36.9363 33.2435
C -18.7717 37.4423 33.0889
C 9.26813 -26.2471 -32.6685
C 9.57863 -27.1953 -33.3284
C 17.4895 -35.7109 2.53557
C 17.7301 -36.8458 2.82886
C 22.8005 30.0037 30.9452
C 23.9823 30.245 31.1329
H 17.4562 37.6611 6.3448
C -18.9731 36.7408 30.0476
C -18.8456 36.0109 29.0664
C -5.68906 1.71704 3.18196
C -5.4051 2.45415 4.06971
C 18.0924 29.1335 -21.2333
C 18.4848 30.1519 -21.7337
C -24.3461 -29.4108 10.169
C -23.2947 -28.8157 9.92189
C 8.46758 22.3634 -26.8282
C 8.21862 21.1683 -27.0474
C -37.6772 39.4271 -7.9452
C -38.4261 38.8254 -8.64547
C -24.562 -7.28964 33.3287
C -25.6822 -7.34195 32.8954
C 31.8789 -22.33 10.9623
C 32.7335 -21.5189 11.017
C 36.9692 12.9835 25.6142
C 36.185 12.2727 26.2212
144
Atoms. Timestep: 140000
O 0.88724 0.758825 3.25891
O 1.98809 1.47063 2.63448
O -0.466949 1.22466 3.33475
O -0.785656 2.34656 2.54154
O -1.25103 0.006 3.38995
O -2.47035 0.00682 2.63587
O -0.421916 -1.15729 3.36222
O -0.749799 -2.28213 2.54773
O 0.90721 -0.678617 3.2644
O 1.94277 -1.48547 2.6262
O 2.44521 -0.0221516 -2.53924
O 1.19083 -0.0218893 -3.18711
O 0.748829 2.32938 -2.54605
O 0.378931 1.08381 -3.15671
O -1.94738 1.38921 -2.49519
O -0.962616 0.666335 -3.21357
O -1.95401 -1.49547 -2.57249
O -0.96708 -0.791312 -3.35683
O 0.889259 -2.25991 -2.46346
O 0.383001 -1.13335 -3.22008
O 2.97539 -0.770129 1.95437
O 2.99732 0.660293 1.96528
O 1.57642 2.57482 1.80735
O 0.25366 3.09186 1.86237
O -2.001 2.35224 1.80993
O -2.81648 1.12863 1.82213
O -2.78849 -1.17818 1.86393
O -1.89412 -2.31886 1.72187
O 0.24848 -3.0825 1.86287
O 1.62181 -2.67559 1.89688
O 2.83735 1.10688 -1.75268
O 2.00492 2.25094 -1.79687
O -0.21249 3.0495 -1.76323
O -1.59127 2.60262 -1.78213
O -2.89904 0.651402 -1.74235
O -2.9508 -0.798598 -1.81145
O -1.45552 -2.56862 -1.83604
O -0.126786 -3.07016 -1.81514
O 2.11172 -2.35486 -1.80154
O 2.84295 -1.19629 -1.76213
O 3.43611 0.633008 -0.567946
O 3.18383 1.28691 0.663628
O 0.404134 3.36891 -0.5502
O -0.410575 3.35904 0.605062
O -3.16962 1.31342 -0.497641
O -3.40795 0.638388 0.673659
O -2.21966 -2.62049 -0.623499
O -1.69799 -3.16192 0.580689
O 1.82997 -3.08953 -0.54566
O 2.32914 -2.6302 0.672473
O 3.17353 -1.45302 0.721739
O 3.3699 -0.772221 -0.540246
O 2.36497 2.43319 0.616517
O 1.78067 2.93647 -0.565253
O -1.7699 3.02566 0.601108
O -2.34805 2.51278 -0.577021
O -3.43763 -0.802955 0.680326
O -3.12275 -1.50552 -0.565362
O -0.332043 -3.50251 0.621062
O 0.450829 -3.51107 -0.5505
C -10.2742 -30.4018 -14.2215
C -9.5602 -31.3494 -14.4198
H -38.4272 -0.339302 -31.2721
C -7.44766 0.175959 -1.17267
C -7.44234 0.105497 -2.37749
C 32.5812 9.66876 -10.8817
C 33.4956 8.92671 -11.1874
C 8.66914 20.6854 -34.3035