165
Atoms. Timestep: 0
O 1.02667 0.743884 3.33308
O 2.0186 1.42688 2.65687
O -0.334155 1.13043 3.35631
O -0.692542 2.27839 2.60838
O -1.25103 0.006 3.38995
O -2.47035 0.00682 2.63587
O -0.332988 -1.11619 3.34871
O -0.720478 -2.27484 2.55615
O 1.0411 -0.716264 3.41115
O 1.93253 -1.45972 2.56977
O 2.5044 -0.0222509 -2.58559
O 1.24816 -0.076849 -3.27964
O 0.790817 2.19195 -2.48926
O 0.350933 1.06242 -3.18677
O -1.98399 1.33913 -2.48365
O -0.978215 0.608741 -3.13119
O -1.99829 -1.52693 -2.42753
O -1.0087 -0.788522 -3.1723
O 0.721208 -2.33954 -2.42431
O 0.365609 -1.19107 -3.20131
O 2.94054 -0.754179 1.82387
O 2.94574 0.647963 1.87907
O 1.55756 2.52439 1.86337
O 0.25366 3.09186 1.86237
O -1.88655 2.21349 1.79913
O -2.71814 1.07868 1.78169
O -2.81331 -1.18082 1.92317
O -1.97342 -2.34491 1.89358
O 0.24848 -3.0825 1.86287
O 1.54195 -2.59009 1.81218
O 2.93809 1.11506 -1.82624
O 2.04054 2.19835 -1.76903
O -0.156906 2.92694 -1.75738
O -1.54627 2.50853 -1.73958
O -2.95381 0.661417 -1.70716
O -3.024 -0.769628 -1.71181
O -1.66902 -2.70518 -1.70471
O -0.262518 -3.13961 -1.6991
O 1.95995 -2.32254 -1.75243
O 2.84683 -1.19765 -1.81856
O 3.3845 0.632332 -0.543293
O 3.14538 1.38089 0.668846
O 0.460358 3.32415 -0.538451
O -0.31793 3.44652 0.593925
O -3.21109 1.38472 -0.560101
O -3.436 0.669787 0.627745
O -2.33283 -2.60374 -0.416913
O -1.7342 -3.03977 0.745265
O 1.7608 -3.02456 -0.539911
O 2.34607 -2.59852 0.605502
O 3.17942 -1.48228 0.646317
O 3.45299 -0.81176 -0.575952
O 2.39018 2.60079 0.694595
O 1.8375 2.99533 -0.551757
O -1.66096 2.97387 0.657367
O -2.3097 2.55736 -0.541401
O -3.42689 -0.749791 0.665169
O -3.18263 -1.49568 -0.52326
O -0.400351 -3.56797 0.662855
O 0.433179 -3.50087 -0.539151
C -4.29449 3.50371 -4.24463
C -4.10196 4.36777 -3.35937
H 38.4296 17.285 9.15019
C -26.5454 14.4108 12.546
C -25.8574 14.3998 11.5229
C 9.94653 -14.0988 -31.9884
C 9.80137 -15.0169 -32.7669
C -38.4985 5.75501 -9.23664
C -38.8336 4.62238 -9.00658
C 2.37575 32.5634 -31.203
C 1.3781 32.2255 -31.7322
C 37.8416 17.7968 8.36017
C 37.211 18.4308 7.51273
C -3.84869 5.12905 -2.36722
C -3.63512 5.86891 -1.36076
C 9.67525 -16.0392 -33.5955
C 9.57627 -17.0224 -34.3143
C -11.616 -14.197 -1.46703
C -10.8813 -15.0481 -1.28426
C -12.5572 -13.1003 -1.71887
C -13.1992 -12.1399 -2.07733
C 9.11448 23.2934 -9.89582
C 8.72188 22.2421 -9.41601
H -10.3144 -15.948 -0.98657
C 0.406741 10.1637 9.85519
C 1.10276 9.22585 9.47449
C 39.4113 -29.159 -5.61086
C 39.9727 -29.9942 -4.9792
C -2.27664 -19.6341 -19.2415
C -2.79802 -18.7082 -18.6521
C -1.76967 17.6066 37.0676
C -2.11005 18.4269 37.8774
C -23.5337 -19.5388 -36.9177
C -23.3627 -20.218 -37.9036
C 10.6974 24.7214 -26.4637
C 10.0693 25.6225 -26.9659
C -2.15834 12.7721 10.8576
C -2.89552 13.7355 11.0937
C -1.18177 11.9662 10.5756
C -0.395415 11.1062 10.1715
C -39.138 -31.9857 -3.60135
C -39.4777 -31.006 -4.30062
C 22.1933 -7.82315 39.7981
C 21.2549 -8.56614 39.8099
H 23.1126 -7.26848 39.6507
C 34.5092 32.5394 3.53307
C 35.1015 31.6046 4.02387
C -20.8061 -30.1184 22.5369
C -21.8766 -29.7383 22.7393
C -34.8209 -27.5943 33.2988
C -34.3318 -28.7109 33.1337
C 21.4282 20.2609 -11.7806
C 22.256 19.6315 -12.4053
C -23.1837 -29.4461 22.8058
C -24.3928 -29.3827 22.7221
C 30.7034 30.2753 21.5105
C 29.876 30.2393 20.6503
C 16.9507 -37.9837 37.6254
C 16.1383 -37.3353 38.2957
C 3.32809 27.2383 37.5299
C 4.46122 27.6402 37.5232
C -2.73808 8.01928 1.67494
C -2.39083 8.74946 2.74489
C -3.03243 7.39447 0.609518
C -3.31826 6.62536 -0.342619
H -19.7907 -30.4157 22.3913
C -25.1178 -37.733 -4.13869
C -24.5647 -36.8411 -3.53291
C -2.11675 9.35341 3.80901
C -2.00486 9.88391 4.89186
C 21.2445 -6.59746 20.5857
C 22.4451 -6.56109 20.6307
C 30.9768 -4.94532 9.5414
C 31.8162 -5.67621 9.02132
C -9.33621 -29.8828 26.6139
C -8.55864 -30.5199 25.9578
C 26.3527 -24.0768 27.4101
C 25.3636 -23.6365 27.9315
C -23.3809 -22.4712 -9.94162
C -24.3915 -22.9162 -9.44298
C -29.7316 6.79592 -6.06479
C -29.6288 7.80221 -5.39693
C 1.81582 -29.8107 -38.4173
C 1.99783 -29.1125 -37.4514
C -12.8066 -26.7429 -10.9657
C -12.5384 -25.589 -11.0019
H -26.4799 28.3808 -26.2288
C -28.2774 35.9101 -24.8358
C -29.4503 35.8699 -24.9597
C 28.4769 17.236 0.939276
C 28.1023 18.4086 0.843755
C -30.4586 8.57439 10.9874
C -30.2145 8.00508 11.9998
C -6.35714 13.9913 -7.31867
C -6.03463 14.0421 -8.46256
C 37.201 -24.9766 -35.9282
C 37.5564 -25.4962 -36.9686
C -22.6919 25.1623 -19.0172
C -23.5716 25.3668 -19.9258
C -22.8875 8.0977 -8.9653
C -24.1369 7.8645 -9.14493
C -28.2837 -3.7255 4.76679
C -29.5064 -3.49524 5.09012
C -19.6962 36.8366 32.6326
C -19.7306 36.2797 33.747
165
Atoms. Timestep: 20000
O 0.9461 0.710112 3.36352
O 1.90973 1.41283 2.61598
O -0.389963 1.16286 3.37077
O -0.697931 2.30382 2.56281
O -1.25103 0.006 3.38995
O -2.47035 0.00682 2.63587
O -0.398254 -1.16974 3.28956
O -0.710336 -2.2551 2.53853
O 0.965049 -0.717008 3.43382
O 1.99785 -1.45477 2.73078
O 2.46431 -0.08097 -2.48318
O 1.32497 -0.0805468 -3.28663
O 0.816518 2.31422 -2.59405
O 0.50535 1.10258 -3.3086
O -1.87771 1.40471 -2.5779
O -0.871582 0.680705 -3.39455
O -1.86695 -1.5259 -2.58091
O -0.922699 -0.788611 -3.34864
O 0.804016 -2.34728 -2.44688
O 0.466004 -1.1778 -3.16844
O 2.97071 -0.76526 1.93023
O 2.89071 0.699443 1.87021
O 1.56151 2.50934 1.77664
O 0.25366 3.09186 1.86237
O -1.88998 2.24348 1.79191
O -2.8087 1.17874 1.82464
O -2.71172 -1.15736 1.86796
O -1.94341 -2.28836 1.82175
O 0.24848 -3.0825 1.86287
O 1.58505 -2.57281 1.86168
O 2.85374 1.11274 -1.7714
O 2.03785 2.30377 -1.85283
O -0.181219 3.01101 -1.8145
O -1.55954 2.58566 -1.84308
O -2.90836 0.709497 -1.81521
O -2.76751 -0.737371 -1.80171
O -1.58991 -2.76122 -1.86731
O -0.251444 -3.14237 -1.78821
O 2.03816 -2.40014 -1.77876
O 2.79362 -1.236 -1.70325
O 3.45495 0.633398 -0.53908
O 3.18416 1.36895 0.656992
O 0.481737 3.38571 -0.618597
O -0.310774 3.43663 0.581601
O -3.09174 1.38256 -0.586586
O -3.39921 0.702172 0.642023
O -2.34417 -2.66381 -0.624776
O -1.75932 -3.08916 0.636411
O 1.76902 -3.03154 -0.51452
O 2.40139 -2.63986 0.707601
O 3.25665 -1.50057 0.743083
O 3.45524 -0.815868 -0.523936
O 2.34981 2.53585 0.552487
O 1.80383 3.00001 -0.666818
O -1.67166 2.96877 0.541052
O -2.29293 2.52551 -0.674866
O -3.35623 -0.734796 0.664902
O -3.09724 -1.45408 -0.587621
O -0.369072 -3.53464 0.654357
O 0.405851 -3.55513 -0.588784
C -1.25444 5.82051 -4.60213
C -1.42187 5.91233 -3.39166
H 37.4224 19.6135 15.6726
C -17.7144 11.9708 5.19969
C -17.3145 12.7198 4.3667
C 3.75867 -16.4028 -31.3096
C 2.66475 -16.8052 -30.9655
C 39.7511 -9.56299 -8.59583
C 39.5324 -8.40016 -8.3952
C -3.37496 33.825 -32.3984
C -2.91548 33.9229 -33.5658
C 36.581 19.279 15.044
C 35.5393 19.0531 14.3923
C -1.61425 5.96612 -2.12831
C -1.82779 6.17257 -0.923056
C 1.47665 -17.2638 -30.608
C 0.371293 -17.685 -30.255
C -7.65931 -13.7214 4.40574
C -7.85931 -14.6459 3.80324
C -7.58797 -12.4915 5.16576
C -7.58704 -11.602 5.97401
C 6.65139 23.0883 -8.27848
C 6.45895 23.9278 -9.09635
H -8.10061 -15.5224 3.16586
C -2.5929 4.42227 10.1707
C -3.33263 3.48337 9.8845
C -36.3174 -35.2691 -2.041
C -36.2119 -34.3949 -2.93322
C -4.86471 -17.9634 -9.62611
C -4.41884 -16.8704 -9.9127
C -6.25156 20.5332 29.9405
C -6.4092 19.3722 30.3142
C -20.059 -18.4462 39.5368
C -20.1974 -19.1209 38.5293
C 9.37432 23.1844 -34.3564
C 10.0571 22.3834 -33.7656
C -0.274808 7.35657 10.7497
C 0.495509 8.41097 10.8911
C -1.04309 6.41868 10.6291
C -1.75664 5.41452 10.4357
C -35.9437 -32.221 -4.22417
C -36.0705 -33.2397 -3.54391
C 13.7759 -20.1462 36.4588
C 14.2026 -20.7359 37.4312
H 13.371 -19.6643 35.6151
C 30.1113 30.7586 -7.4734
C 29.1683 30.6106 -6.74826
C -20.3745 -25.4193 22.3337
C -20.3554 -24.3024 22.53
C -32.9514 -25.7961 33.6066
C -32.0921 -25.2139 32.9655
C 27.3111 10.4445 -4.69061
C 26.3545 11.1042 -4.34305
C -20.4606 -22.9351 22.9389
C -20.5839 -21.7981 23.3644
C -39.0976 33.0385 26.2541
C -39.9569 33.0079 25.4231
C 12.8487 -28.0502 33.8798
C 12.0861 -27.2653 34.4539
C 8.8074 25.6088 -36.7213
C 9.77449 25.7045 -36.0454
C -2.50409 5.92571 2.81114
C -2.76755 5.55777 4.05001
C -2.29491 6.11604 1.67518
C -2.05889 6.15197 0.363189
H -20.3474 -26.492 22.1872
C -24.1393 -25.302 -8.68678
C -23.0427 -25.8187 -8.81608
C -3.13855 5.1795 5.2
C -3.54515 4.75474 6.25793
C 15.0866 -2.52937 15.5699
C 15.9022 -3.33737 15.2023
C 29.4535 -12.7559 12.5874
C 28.3597 -12.3255 12.3773
C -0.35131 -37.7604 17.5533
C -1.08514 -38.5798 18.0389
C 36.2707 -34.4073 30.3103
C 36.6888 -35.4897 29.9814
C -24.9509 -25.7905 -16.0842
C -23.8851 -25.387 -15.6727
C -33.9047 16.3287 -3.77629
C -33.4853 17.462 -3.79426
C -0.336917 -35.1604 -38.4531
C -0.377047 -34.4714 -39.4279
C -11.2247 -23.1773 -17.173
C -11.5256 -24.2884 -17.4637
H -15.6092 27.0935 -12.1809
C -26.867 36.126 -29.6078
C -25.8668 36.9356 -29.727
C 23.1109 21.399 3.92349
C 23.383 22.642 3.88977
C -30.8011 11.281 12.111
C -29.9977 12.022 12.7032
C 2.03158 18.3781 1.12138
C 3.17332 18.3889 1.53272
C 36.7509 -24.5874 -32.6582
C 37.6506 -25.2439 -32.1667
C -21.336 25.1484 -17.9679
C -21.2953 25.1658 -16.7569
C -25.5793 2.24687 -9.90238
C -25.9235 2.31886 -11.1279
C 39.6135 8.39075 -4.21345
C 38.5201 8.94963 -4.35431
C -15.9633 -36.1674 24.9367
C -16.7203 -36.2176 23.8988
165
Atoms. Timestep: 40000
O 0.948016 0.682249 3.44522
O 1.91029 1.42826 2.72337
O -0.379705 1.16791 3.43394
O -0.739184 2.336 2.62811
O -1.25103 0.006 3.38995
O -2.47035 0.00682 2.63587
O -0.474186 -1.18817 3.33294
O -0.824129 -2.30897 2.52095
O 0.900709 -0.791196 3.36063
O 1.92131 -1.50925 2.66413
O 2.56058 -0.0838207 -2.46691
O 1.31513 -0.0400151 -3.25308
O 0.895883 2.33165 -2.50493
O 0.5194 1.16429 -3.28532
O -1.86449 1.41549 -2.58715
O -0.849612 0.717884 -3.29062
O -1.8585 -1.50437 -2.59266
O -0.904771 -0.738429 -3.25418
O 0.81648 -2.37024 -2.45294
O 0.471034 -1.17381 -3.18416
O 2.87483 -0.752299 1.88733
O 2.87527 0.663393 1.96043
O 1.59122 2.55002 1.92075
O 0.25366 3.09186 1.86237
O -1.85375 2.26622 1.78995
O -2.64005 1.07599 1.72955
O -2.85074 -1.12431 1.88602
O -2.02462 -2.27809 1.83935
O 0.24848 -3.0825 1.86287
O 1.63795 -2.68013 1.86876
O 2.90627 1.09451 -1.7051
O 2.06031 2.27672 -1.68328
O -0.146926 2.95689 -1.78883
O -1.51341 2.53143 -1.80983
O -2.83538 0.638766 -1.88403
O -2.85664 -0.802361 -1.79525
O -1.49521 -2.64877 -1.81498
O -0.147627 -3.07586 -1.70524
O 2.05129 -2.38578 -1.74849
O 2.97226 -1.29271 -1.79117
O 3.53149 0.658807 -0.494327
O 3.11986 1.3615 0.760101
O 0.443177 3.44175 -0.523616
O -0.366658 3.40657 0.620785
O -3.13789 1.35025 -0.655288
O -3.29924 0.675901 0.549232
O -2.34776 -2.67138 -0.604486
O -1.77543 -3.0512 0.627158
O 1.7442 -3.10427 -0.542072
O 2.43914 -2.69417 0.678326
O 3.21057 -1.45324 0.745892
O 3.46527 -0.74764 -0.474565
O 2.37304 2.55163 0.726332
O 1.78294 2.95191 -0.45123
O -1.7232 3.0236 0.564207
O -2.26694 2.55878 -0.68075
O -3.43156 -0.691813 0.668775
O -3.1979 -1.47446 -0.595968
O -0.384409 -3.51739 0.688546
O 0.400758 -3.58927 -0.520663
C 0.912592 10.6213 -0.680549
C 0.275878 9.67882 -0.215684
H 35.6053 21.5728 21.4988
C -8.83299 9.69746 -2.30385
C -8.90385 10.8763 -2.57403
C -5.22389 -19.7937 -29.7116
C -5.44699 -18.9446 -28.8762
C 37.5883 -22.7229 -7.5764
C 38.3238 -23.472 -8.16725
C -8.72028 35.1572 -34.7184
C -7.57566 35.5385 -34.2635
C 34.9972 20.6953 21.512
C 34.2703 19.7634 21.492
C -0.393826 8.84498 0.394695
C -1.10607 8.01682 1.01703
C -5.72016 -18.0787 -27.9979
C -5.94973 -17.2975 -27.0599
C -3.85519 -12.638 10.7049
C -4.54374 -12.6762 9.81061
C -2.87046 -12.6703 11.8168
C -1.98704 -12.6604 12.6722
C 3.84181 24.4449 -8.18641
C 4.56067 24.0462 -7.25886
H -5.23467 -12.7034 8.9827
C -2.30605 -1.32507 5.37946
C -3.30422 -1.78976 4.82226
C -31.7681 -35.3391 -2.10116
C -32.2635 -36.4117 -1.85873
C -7.18327 -15.6465 -0.21261
C -6.29301 -15.6921 -1.04193
C -10.9444 21.791 23.3818
C -10.4636 21.9715 22.2391
C -16.6337 -17.3774 35.9728
C -17.008 -18.0084 35.008
C 7.92733 16.318 -38.5418
C 8.14874 17.2937 -39.2287
C 0.779147 -0.369456 7.42799
C 1.88331 -0.282233 8.10042
C -0.264494 -0.620189 6.71248
C -1.28536 -0.954147 6.0556
C -33.1976 -38.691 -1.36289
C -32.6826 -37.6128 -1.69188
C 7.28084 -27.6517 39.6421
C 7.87016 -28.0019 -39.3865
H 6.65312 -27.3403 38.7373
C 24.7165 28.8261 -17.6585
C 24.2716 29.779 -18.2581
C -20.0198 -18.1683 22.3472
C -18.9785 -17.8418 22.7276
C -30.1606 -23.3531 33.2174
C -30.7895 -22.382 33.4938
C 31.2969 1.95779 3.04731
C 32.3122 1.31783 3.0129
C -17.7529 -17.4391 23.0991
C -16.5667 -17.2152 23.3599
C -28.7074 36.2279 30.8182
C -29.3585 35.9583 29.821
C 6.52196 -22.3847 24.3197
C 7.45632 -23.0234 23.7946
C 15.772 27.9049 -32.3624
C 15.5862 27.0552 -33.2582
C -2.77573 5.27084 3.14258
C -3.18417 4.31035 3.84184
C -2.17901 6.17411 2.42238
C -1.68078 7.11582 1.78151
H -20.9543 -18.4506 21.9196
C -22.118 -13.4162 -13.5411
C -22.6074 -14.3217 -14.1456
C -3.54579 3.26172 4.50823
C -3.909 2.28513 5.19192
C 9.21471 1.23989 10.4439
C 9.12179 0.157152 9.92408
C 25.9908 -19.7659 15.2566
C 26.8617 -19.7197 16.0854
C 7.69537 33.3722 9.12441
C 7.26336 34.4113 9.55345
C -33.7338 33.2911 32.7913
C -32.8457 34.0843 32.9495
C -24.6934 -28.4245 -21.2954
C -25.1676 -28.5402 -22.3961
C -37.9725 26.052 -1.4872
C -37.4016 26.8545 -2.21502
C -2.53572 -39.563 -39.8024
C -2.68869 39.2634 39.9173
C -10.2449 -21.8288 -23.9307
C -9.91853 -20.7882 -23.3287
H -2.38954 37.2209 -3.90119
C -23.7593 37.7824 -34.5827
C -23.9997 36.5559 -34.2548
C 17.8786 25.6687 6.9017
C 18.5685 26.7364 6.91871
C -30.5064 14.5439 13.7109
C -30.4026 15.4695 12.9206
C 11.6401 22.7612 9.95184
C 11.0941 22.7061 11.0667
C 37.1385 -24.8086 -28.9396
C 36.9087 -24.3835 -27.8443
C -19.8089 24.6447 -14.4353
C -19.4048 24.498 -15.6079
C -28.4689 -3.53348 -11.583
C -27.5096 -3.25045 -12.3483
C 27.411 20.5044 -13.1407
C 26.7382 21.3026 -13.7808
C -13.4902 -29.2962 15.5949
C -12.476 -28.6458 15.7638
165
Atoms. Timestep: 60000
O 0.935535 0.728346 3.4129
O 1.93493 1.41353 2.69667
O -0.377188 1.16099 3.39971
O -0.7286 2.28213 2.57601
O -1.25103 0.006 3.38995
O -2.47035 0.00682 2.63587
O -0.340883 -1.11363 3.31914
O -0.68292 -2.30249 2.57391
O 0.981813 -0.680413 3.41189
O 1.90215 -1.42606 2.63048
O 2.46968 -0.0867304 -2.56054
O 1.22108 -0.0908617 -3.23634
O 0.774655 2.21064 -2.61412
O 0.336165 1.04651 -3.3629
O -1.87278 1.27736 -2.51086
O -1.00728 0.595121 -3.28429
O -1.97167 -1.54954 -2.42118
O -0.974623 -0.866593 -3.1932
O 0.766923 -2.43236 -2.44002
O 0.387481 -1.24174 -3.11015
O 2.90683 -0.760928 1.90415
O 2.82214 0.650207 1.85479
O 1.56563 2.52792 1.85099
O 0.25366 3.09186 1.86237
O -1.94256 2.25642 1.84547
O -2.84811 1.15793 1.87323
O -2.7147 -1.15919 1.82777
O -1.88871 -2.31315 1.85165
O 0.24848 -3.0825 1.86287
O 1.58437 -2.62919 1.91509
O 2.80368 1.0691 -1.82503
O 1.98035 2.21857 -1.86972
O -0.193938 2.93878 -1.88823
O -1.55665 2.54026 -1.82837
O -2.84062 0.592102 -1.78539
O -2.95503 -0.85296 -1.7339
O -1.58932 -2.69602 -1.69777
O -0.224082 -3.16308 -1.76602
O 2.03295 -2.46631 -1.80425
O 2.81861 -1.24036 -1.76255
O 3.31563 0.683534 -0.544151
O 3.07052 1.37961 0.611873
O 0.366175 3.38426 -0.664954
O -0.330526 3.46172 0.58176
O -3.14364 1.31718 -0.625288
O -3.42099 0.720933 0.603371
O -2.39504 -2.70344 -0.518144
O -1.67452 -3.09817 0.656267
O 1.75839 -3.08531 -0.547719
O 2.37944 -2.6393 0.656086
O 3.24438 -1.50516 0.703354
O 3.40715 -0.774357 -0.544656
O 2.2976 2.52808 0.584205
O 1.72584 2.91726 -0.631275
O -1.71268 3.04457 0.602553
O -2.28473 2.52102 -0.595888
O -3.3691 -0.690816 0.673845
O -3.24491 -1.53595 -0.521109
O -0.353401 -3.57562 0.647558
O 0.430543 -3.59896 -0.5684
C 0.884829 6.49499 4.33415
C 0.232181 5.54775 4.69024
H 33.4404 22.8532 27.6116
C 0.110575 7.67286 -9.92244
C -0.38412 8.72936 -9.51862
C -12.8943 -16.4952 -29.9504
C -11.9029 -16.7767 -29.238
C 36.7247 -37.4391 -7.60968
C 35.785 -37.2476 -6.8751
C -13.1949 36.8123 -36.6299
C -13.1792 36.8669 -35.4135
C 33.2874 21.865 28.0934
C 33.1289 20.7985 28.5836
C -0.546139 4.56447 5.06249
C -1.12707 3.62067 5.45713
C -10.7621 -17.0116 -28.6551
C -9.68799 -17.0723 -28.0774
C 0.70125 -11.5768 17.6901
C 0.0918693 -10.6338 17.4815
C 1.37054 -12.8307 17.7551
C 2.03258 -13.8159 17.7712
C 2.32852 25.1136 -6.4131
C 1.3227 24.866 -7.08483
H -0.450177 -9.70046 17.2708
C -3.29923 -3.91671 3.77085
C -4.24144 -3.08146 3.81568
C -30.2515 38.5642 -0.111354
C -29.2764 39.2707 -0.377968
C -8.99923 -13.3618 8.79645
C -8.70873 -14.4515 8.4017
C -15.0018 23.281 15.1494
C -15.2342 24.3741 15.7028
C -13.1231 -16.3342 32.3285
C -13.8432 -16.8503 31.5016
C 6.71511 11.5563 35.9437
C 6.18217 10.7016 36.6128
C -0.234612 -6.09209 3.98095
C 0.846653 -6.74263 3.973
C -1.33575 -5.43985 3.92827
C -2.32609 -4.7695 3.88883
C -27.3454 -39.0887 -0.405318
C -28.2721 -39.8501 -0.339599
C 1.27225 -33.3426 -35.1179
C 1.84456 -33.6911 -34.1088
H 0.607121 -33.0501 -35.9577
C 18.188 27.5586 -26.3476
C 19.1383 27.186 -26.9795
C -17.2111 -10.0894 22.8689
C -16.6344 -11.0741 22.8528
C -28.0396 -19.8442 33.1346
C -28.7792 -20.5675 33.717
C 37.337 -7.88163 10.7716
C 36.3075 -7.28413 10.5215
C -15.8991 -12.2684 22.9714
C -15.3574 -13.3268 23.1018
C -16.3037 39.8015 32.4836
C -15.1396 39.85 32.7532
C 1.43854 -19.7979 11.9992
C 0.495702 -19.2783 11.4311
C 22.436 29.0002 -29.2817
C 22.2193 29.5655 -30.3853
C -3.0685 0.478012 6.57359
C -3.6671 -0.629652 6.79431
C -2.45535 1.59253 6.28215
C -1.79557 2.58864 5.96647
H -17.7691 -9.09633 22.9512
C -20.5577 -2.27565 -19.0222
C -21.7068 -1.86377 -18.9559
C -4.19423 -1.81677 6.82777
C -4.84415 -2.79587 6.98043
C 5.03316 2.19307 5.37283
C 4.24547 2.94569 5.88073
C 24.0274 -26.7433 19.4347
C 23.8187 -27.2793 18.3433
C 15.9809 25.5685 2.16745
C 16.9341 25.8903 1.50009
C -25.965 21.097 37.6261
C -25.4058 22.0723 38.0609
C -25.2218 -31.2732 -28.4008
C -25.6713 -31.526 -27.3133
C 38.0408 36.0152 0.655943
C 38.5274 36.1833 -0.454184
C -4.96955 34.4426 38.4489
C -4.82659 34.4834 39.6593
C -12.724 -24.7934 -24.4974
C -12.8164 -25.7016 -23.6458
H 10.9518 -32.5584 4.4548
C -20.9466 37.3949 -39.0437
C -21.7918 38.2317 -39.384
C 12.031 29.9517 9.0685
C 12.6873 30.9699 9.11794
C -30.1708 18.4588 14.741
C -30.8494 18.327 13.7247
C 20.8345 27.2312 19.9037
C 19.77 27.2433 19.2852
C 37.3071 -24.6375 -24.2081
C 36.3824 -23.9095 -24.4606
C -17.4723 23.8496 -13.0935
C -18.2922 24.1108 -12.225
C -30.7299 -9.18328 -13.7584
C -29.7498 -9.0613 -13.1087
C 15.2141 33.0926 -23.9153
C 15.3948 33.8396 -24.8195
C -9.30309 -21.3057 6.5113
C -9.88346 -22.0582 7.20977
165
Atoms. Timestep: 80000
O 0.935244 0.693306 3.23574
O 1.89619 1.41663 2.51187
O -0.355234 1.14425 3.31785
O -0.681017 2.25663 2.56536
O -1.25103 0.006 3.38995
O -2.47035 0.00682 2.63587
O -0.378153 -1.12977 3.35215
O -0.694592 -2.33254 2.63162
O 1.01631 -0.70322 3.31338
O 1.9808 -1.46057 2.57237
O 2.35009 -0.126297 -2.50451
O 1.15528 -0.14154 -3.16142
O 0.708746 2.21444 -2.43084
O 0.407883 1.04611 -3.16292
O -2.02234 1.34483 -2.578
O -0.969007 0.624594 -3.21251
O -2.00001 -1.50938 -2.4755
O -0.983847 -0.848777 -3.2409
O 0.779621 -2.52723 -2.5326
O 0.353251 -1.29413 -3.16641
O 2.90741 -0.714084 1.76953
O 2.89811 0.716648 1.77621
O 1.61821 2.59927 1.79369
O 0.25366 3.09186 1.86237
O -1.92984 2.29647 1.86672
O -2.8341 1.15576 1.88904
O -2.75321 -1.19801 1.93543
O -1.92491 -2.34846 1.86739
O 0.24848 -3.0825 1.86287
O 1.64177 -2.6858 1.90426
O 2.79788 1.06852 -1.81253
O 2.019 2.25976 -1.87995
O -0.264686 2.92885 -1.78481
O -1.65546 2.53147 -1.77141
O -3.01902 0.636582 -1.80264
O -2.97139 -0.807713 -1.70004
O -1.58422 -2.69075 -1.71603
O -0.216705 -3.18209 -1.77238
O 2.0106 -2.51572 -1.79361
O 2.79596 -1.30552 -1.85372
O 3.41076 0.599403 -0.614956
O 3.22694 1.42021 0.559255
O 0.38868 3.35416 -0.598445
O -0.369194 3.40335 0.598417
O -3.21199 1.42185 -0.585015
O -3.39514 0.666705 0.64248
O -2.38718 -2.63465 -0.548863
O -1.71495 -2.99861 0.651824
O 1.74317 -3.13339 -0.520106
O 2.31993 -2.6417 0.653601
O 3.11179 -1.49105 0.592429
O 3.42697 -0.817121 -0.631698
O 2.34731 2.55439 0.588486
O 1.73996 2.97983 -0.65424
O -1.6728 2.89877 0.576212
O -2.41546 2.54688 -0.602076
O -3.35315 -0.767148 0.678706
O -3.17051 -1.50186 -0.5246
O -0.3236 -3.47412 0.595606
O 0.411625 -3.60144 -0.572334
C -7.60795 0.424325 3.88559
C -6.89714 -0.556515 4.02414
H 31.0579 23.4367 33.9601
C 8.93437 5.89066 -17.4359
C 8.2293 6.32567 -16.5199
C -18.3542 -14.6363 -29.3622
C -17.2393 -14.5616 -29.8117
C 34.1164 28.2123 -6.25129
C 35.0078 28.6649 -6.93077
C -18.0811 38.5365 -38.5351
C -19.1984 38.2359 -38.0171
C 31.5252 22.7875 34.7414
C 32.0642 22.1344 35.56
C -6.0069 -1.46559 4.05927
C -5.21048 -2.3487 4.07217
C -16.0689 -14.6503 -30.4134
C -14.9425 -14.604 -30.8971
C 5.58534 -11.2187 24.5753
C 5.88968 -10.4459 25.3451
C 5.14559 -12.1693 23.5703
C 4.85439 -13.0534 22.7954
C -0.990724 25.3453 -5.85909
C -0.0995931 26.1198 -5.69547
H 6.30714 -9.82558 26.1657
C -6.34924 -5.72766 3.39293
C -7.16946 -5.88939 4.36461
C -23.5553 37.2393 1.8585
C -24.5278 36.7536 1.347
C -10.6491 -11.7504 17.5465
C -11.2882 -12.6299 18.0404
C -19.3657 26.2377 7.68356
C -19.6801 25.302 8.43016
C -9.66665 -15.3121 28.6593
C -10.6378 -15.6754 28.0347
C 4.45071 5.13307 31.7513
C 5.27428 5.79425 31.1518
C -4.22355 -5.55772 0.211027
C -3.56862 -5.69659 -0.891924
C -4.86189 -5.60235 1.31654
C -5.57368 -5.6721 2.33192
C -26.6926 35.7705 0.442599
C -25.6333 36.1102 0.886285
C -4.45762 -39.0508 -29.9563
C -4.52067 -39.3475 -28.7501
H -4.40799 -38.6581 -30.9495
C 12.0486 24.6941 -29.6323
C 11.1416 24.7221 -28.849
C -12.9588 -4.33848 23.1741
C -13.7748 -5.12173 23.0844
C -26.7125 -17.098 33.6713
C -25.9836 -18.0012 33.3203
C -38.6555 -16.5294 17.9842
C -37.6852 -17.0401 18.5107
C -14.7581 -6.14048 22.8908
C -15.6134 -6.9841 22.9754
C -1.9193 -36.5497 34.6346
C -2.98226 -36.3694 35.2081
C -3.89114 -17.0418 -0.447002
C -4.33275 -16.8224 0.664046
C 29.4248 32.1352 -31.2329
C 29.4358 32.3219 -30.0172
C -2.45409 -4.93531 4.16506
C -1.6664 -5.83968 4.14166
C -3.344 -3.9939 4.27089
C -4.20827 -3.13771 4.22346
H -12.1796 -3.53909 23.1565
C -20.0594 9.21306 -24.4326
C -19.7624 10.2025 -23.8089
C -0.909899 -6.88976 3.96629
C -0.27745 -7.95545 3.72013
C 9.27081 -1.2409 7.71249
C 8.56896 -0.26415 7.61103
C 21.709 -34.6396 21.708
C 21.141 -33.8904 22.493
C 26.2237 18.1289 -3.84739
C 26.2408 16.949 -4.10652
C -18.168 9.0087 -37.5172
C -17.9984 10.0247 -36.8874
C -26.4962 -34.5362 -33.6837
C -25.4269 -34.0855 -34.0286
C 34.1499 -34.0031 2.56514
C 34.367 -34.5434 1.48622
C -7.21936 28.5247 38.2612
C -7.14955 29.647 37.8521
C -16.1948 -30.7257 -22.9962
C -16.2138 -29.79 -23.7361
H 24.266 -22.3585 12.7937
C -19.0429 38.217 36.6756
C -17.8265 38.5813 36.7719
C 5.35727 34.1547 9.65957
C 5.9715 35.2531 9.70288
C -30.24 22.2982 15.1523
C -30.8913 21.2459 15.1438
C 28.8656 31.7569 29.0703
C 29.6275 31.8089 28.0746
C 36.6881 -23.8427 -19.6804
C 36.6444 -24.0607 -20.8898
C -16.7413 23.5665 -10.0401
C -15.5812 23.214 -10.5633
C -32.3362 -14.7429 -15.512
C -32.6223 -14.9435 -14.2918
C 3.91466 -34.5503 -37.2143
C 4.76455 -34.2608 -37.9856
C -6.91932 -13.3417 -2.20306
C -7.38465 -14.205 -3.07124
165
Atoms. Timestep: 100000
O 1.01733 0.737457 3.34053
O 1.93475 1.4338 2.5642
O -0.379033 1.14733 3.25519
O -0.710658 2.36602 2.58039
O -1.25103 0.006 3.38995
O -2.47035 0.00682 2.63587
O -0.406187 -1.17728 3.36071
O -0.757847 -2.30622 2.56331
O 0.982169 -0.708916 3.41351
O 2.00614 -1.47946 2.65405
O 2.35211 -0.0741885 -2.46738
O 1.23277 -0.0228928 -3.28115
O 0.750896 2.32592 -2.49428
O 0.399883 1.13347 -3.24371
O -2.00834 1.52456 -2.55975
O -1.00218 0.710622 -3.23937
O -2.05974 -1.38282 -2.49789
O -1.0552 -0.716072 -3.18742
O 0.640644 -2.26922 -2.56977
O 0.378317 -1.11662 -3.30553
O 2.98255 -0.797356 1.82638
O 2.92975 0.643787 1.86565
O 1.60365 2.63971 1.897
O 0.25366 3.09186 1.86237
O -1.92212 2.32926 1.85924
O -2.7969 1.18941 1.89321
O -2.95674 -1.21961 1.95845
O -2.01741 -2.33715 1.83817
O 0.24848 -3.0825 1.86287
O 1.62423 -2.68055 1.86925
O 2.75639 1.11899 -1.7347
O 1.92717 2.26682 -1.68074
O -0.244864 3.0392 -1.72238
O -1.63468 2.69615 -1.80677
O -2.90021 0.746369 -1.76163
O -2.94121 -0.677389 -1.70821
O -1.65026 -2.50964 -1.774
O -0.303378 -2.96229 -1.78347
O 1.85621 -2.34327 -1.88257
O 2.78407 -1.23992 -1.78138
O 3.36366 0.668972 -0.55599
O 3.18158 1.37902 0.660769
O 0.445053 3.57462 -0.601499
O -0.321645 3.46908 0.589127
O -3.14809 1.40593 -0.539179
O -3.406 0.720438 0.688514
O -2.37364 -2.56638 -0.537356
O -1.796 -3.06903 0.656794
O 1.64212 -2.94216 -0.609936
O 2.34295 -2.67396 0.593367
O 3.24536 -1.52179 0.627239
O 3.41848 -0.780972 -0.540088
O 2.42765 2.58766 0.723169
O 1.77704 3.04764 -0.512956
O -1.70543 3.0502 0.674154
O -2.36212 2.60671 -0.525375
O -3.48473 -0.678415 0.736167
O -3.24066 -1.38555 -0.499412
O -0.430161 -3.45218 0.624444
O 0.332736 -3.51596 -0.58813
C -6.74455 -7.03373 -1.2719
C -5.54417 -6.90306 -1.16958
H 29.0391 23.5738 -39.1138
C 17.6391 4.18274 -24.7702
C 17.0463 3.82742 -23.7707
C -22.3785 -12.7072 -29.448
C -22.1277 -12.4242 -30.6267
C 33.1921 14.4869 -6.20622
C 32.5476 13.5769 -5.7411
C -23.3809 -39.8474 35.4535
C -23.3669 -39.8286 34.2036
C 29.8937 23.6072 -38.3939
C 30.8237 23.6218 -37.6603
C -4.30251 -6.75505 -0.934349
C -3.00444 -6.60874 -0.682263
C -21.9246 -12.2781 -31.9
C -21.6353 -12.0958 -33.0953
C 10.2173 -11.4225 31.0268
C 11.1255 -11.8433 31.5829
C 9.22766 -10.9299 30.1679
C 8.35692 -10.516 29.4767
C -2.69531 27.0006 -5.00697
C -3.15953 25.9572 -4.5948
H 12.0256 -12.2913 32.0533
C -5.13782 -2.27009 -5.39985
C -4.75213 -2.79384 -6.46083
C -23.0656 32.9736 1.6886
C -21.9978 32.8191 2.30404
C -12.2735 -10.8411 26.8596
C -13.2344 -10.6393 27.5799
C -24.213 28.4478 1.19178
C -23.7495 28.001 0.0969543
C -6.58201 -14.0196 24.7328
C -7.7233 -14.1785 24.4294
C 3.77525 -0.00560798 26.3535
C 2.76207 -0.452631 26.8496
C -6.08903 -0.33128 -2.16609
C -6.19576 0.343894 -1.0769
C -5.74138 -0.998156 -3.22657
C -5.51139 -1.70836 -4.31254
C -19.6636 33.0816 3.43262
C -20.8101 32.9081 2.92075
C -10.3803 35.2684 -24.6616
C -10.7025 34.9467 -23.4943
H -10.0333 35.3141 -25.6718
C 4.15155 21.8477 -31.4189
C 4.89257 22.2441 -32.2746
C -10.6067 -0.440806 22.8955
C -11.5653 0.144315 23.1128
C -24.6293 -15.3027 33.8545
C -23.9241 -14.4582 33.2779
C -32.7108 -26.2304 26.2617
C -33.5666 -25.8321 25.5087
C -12.7888 0.80971 23.2331
C -13.8261 1.41225 23.2586
C 10.6883 -31.5306 38.4417
C 10.9486 -31.851 37.2942
C -5.49196 -15.3434 -9.43478
C -6.44833 -14.8046 -9.88816
C 36.4186 35.6352 -31.007
C 36.6571 34.7134 -31.8005
C 0.595407 -6.56653 0.358703
C 1.78639 -6.61996 0.796256
C -0.572426 -6.60837 -0.0678205
C -1.84684 -6.63931 -0.367492
H -9.744 -1.00313 22.6432
C -19.2759 21.6456 -29.3069
C -18.0915 21.4391 -29.2477
C 3.01181 -6.48965 1.10439
C 4.17318 -6.20373 1.38655
C 12.4917 -4.82022 9.045
C 12.1098 -3.81343 8.50023
C 18.3741 38.7423 25.3654
C 19.4555 38.1501 25.2897
C 36.5262 9.41413 -10.1379
C 35.5685 9.44385 -9.40202
C -10.3055 -3.06033 -32.5951
C -10.5828 -2.15919 -31.8533
C -25.9655 -37.102 -39.5946
C -26.9458 -37.4224 39.7633
C 30.2713 -24.0875 4.27972
C 30.1517 -25.1117 3.62244
C -9.38989 24.0225 37.549
C -9.57397 23.3427 36.5596
C -19.7226 -34.7866 -22.9881
C -19.5874 -35.7983 -22.3263
H 37.6446 -12.1093 21.1731
C -16.6448 39.2443 37.2903
C -15.864 38.3401 37.3162
C -1.283 38.4038 10.26
C -0.842667 39.5313 10.2841
C -30.6691 25.5508 15.5864
C -30.5737 24.7845 16.549
C 37.7837 36.3609 37.2095
C 38.6847 36.3403 37.9786
C 36.029 -23.2256 -16.1409
C 36.9448 -24.031 -16.2915
C -13.8246 22.6205 -7.8906
C -15.0391 22.9743 -7.97495
C -34.1257 -20.4688 -16.387
C -35.3332 -20.715 -16.3679
C -7.2054 -23.1199 28.6264
C -6.01896 -23.3906 28.3152
C -7.53391 -4.73497 -14.4147
C -8.34624 -5.3723 -13.7122
165
Atoms. Timestep: 120000
O 0.956877 0.809296 3.41654
O 2.00756 1.49576 2.66313
O -0.382729 1.18059 3.39456
O -0.696238 2.3449 2.6505
O -1.25103 0.006 3.38995
O -2.47035 0.00682 2.63587
O -0.347805 -1.11482 3.26744
O -0.714112 -2.30439 2.57592
O 0.961877 -0.587639 3.22339
O 1.99258 -1.3411 2.64846
O 2.4041 0.0629205 -2.56171
O 1.19451 0.0582974 -3.29653
O 0.70898 2.41622 -2.65831
O 0.332034 1.15608 -3.34531
O -1.9778 1.4262 -2.55331
O -1.00558 0.742048 -3.3502
O -2.02203 -1.40838 -2.55237
O -0.996816 -0.67435 -3.22881
O 0.749032 -2.2053 -2.42801
O 0.398076 -1.1297 -3.24967
O 2.95765 -0.628054 1.843
O 2.98289 0.79042 1.83853
O 1.6203 2.61107 1.87332
O 0.25366 3.09186 1.86237
O -1.9323 2.29717 1.98275
O -2.82012 1.16446 1.87431
O -2.84279 -1.13852 1.81424
O -1.93247 -2.25856 1.82652
O 0.24848 -3.0825 1.86287
O 1.61135 -2.57898 1.90748
O 2.74429 1.23714 -1.81752
O 1.89919 2.43322 -1.84244
O -0.270288 2.97509 -1.75974
O -1.65261 2.63023 -1.79507
O -2.94687 0.70431 -1.80124
O -3.01437 -0.730384 -1.79467
O -1.59032 -2.50525 -1.69926
O -0.212724 -2.9598 -1.75092
O 1.90211 -2.19208 -1.71223
O 2.79823 -1.08541 -1.75766
O 3.33902 0.775791 -0.592973
O 3.10229 1.5045 0.594379
O 0.327033 3.53479 -0.514475
O -0.454023 3.40412 0.661565
O -3.2084 1.33048 -0.594588
O -3.42272 0.704389 0.615971
O -2.41351 -2.62406 -0.521446
O -1.73512 -3.0226 0.629948
O 1.78606 -2.98803 -0.565719
O 2.39233 -2.55602 0.701599
O 3.22037 -1.4066 0.670649
O 3.41882 -0.656503 -0.527339
O 2.27151 2.64838 0.64829
O 1.65555 3.11668 -0.551316
O -1.78917 2.95156 0.682618
O -2.38373 2.53118 -0.545787
O -3.5115 -0.71393 0.645388
O -3.26959 -1.40308 -0.554935
O -0.360546 -3.50837 0.61745
O 0.365121 -3.35078 -0.557027
C -1.90477 -5.91204 -7.06006
C -1.04225 -5.42684 -6.36637
H 27.595 23.7959 -31.7855
C 26.2573 2.38879 -31.9332
C 25.9993 1.40331 -31.234
C -26.1251 -10.4696 -31.0877
C -26.9699 -10.271 -31.9218
C 31.2329 -1.60155 -5.61731
C 31.5257 -0.446959 -5.80406
C -27.353 -36.8123 28.468
C -27.642 -36.7576 29.7009
C 28.4163 24.4318 -31.3817
C 29.3723 25.1038 -31.0215
C -0.0248126 -4.96026 -5.63114
C 0.96608 -4.56539 -4.98154
C -27.8463 -10.001 -32.8829
C -28.6466 -9.79157 -33.7763
C 14.3477 -11.3526 36.8914
C 14.6114 -12.391 36.5513
C 14.0436 -9.98672 37.3239
C 13.6661 -8.91674 37.6813
C -5.22752 26.7885 -3.40426
C -5.40545 27.6661 -4.23925
H 14.9058 -13.3688 36.1435
C -1.59741 4.13938 -5.14032
C -0.459027 4.50108 -5.30725
C -17.9305 28.0355 2.07668
C -18.7329 27.3517 2.72306