186
Atoms. Timestep: 0
O 0.890214 0.714659 3.25631
O 1.92896 1.43917 2.55523
O -0.429935 1.18717 3.3841
O -0.768399 2.36236 2.6249
O -1.25103 0.006 3.38995
O -2.47035 0.00682 2.63587
O -0.410102 -1.17093 3.2418
O -0.713381 -2.28497 2.55284
O 0.949124 -0.709063 3.32677
O 1.93325 -1.38383 2.49886
O 2.34798 -0.0163994 -2.6267
O 1.0798 0.0237815 -3.33838
O 0.723952 2.29376 -2.63635
O 0.23843 1.1297 -3.31911
O -2.07409 1.35399 -2.55899
O -1.10422 0.677395 -3.36332
O -2.03555 -1.455 -2.62401
O -1.09136 -0.727753 -3.40719
O 0.711243 -2.3791 -2.64786
O 0.272328 -1.18113 -3.28798
O 2.84595 -0.689228 1.67171
O 2.93602 0.748708 1.75528
O 1.54894 2.60155 1.79145
O 0.25366 3.09186 1.86237
O -1.99187 2.3214 1.8351
O -2.79947 1.17401 1.92146
O -2.80065 -1.22227 1.90141
O -1.94846 -2.42645 1.89098
O 0.24848 -3.0825 1.86287
O 1.56427 -2.53765 1.77704
O 2.73083 1.12896 -1.87193
O 1.88381 2.24829 -1.82763
O -0.280425 2.98134 -1.79773
O -1.65407 2.51624 -1.80847
O -3.02696 0.656231 -1.76886
O -2.99314 -0.784368 -1.80399
O -1.62271 -2.60298 -1.82612
O -0.270572 -3.10484 -1.88076
O 1.98382 -2.31998 -1.91446
O 2.78849 -1.14007 -1.81949
O 3.4083 0.720309 -0.690701
O 3.20573 1.45425 0.554794
O 0.346709 3.46307 -0.570829
O -0.408265 3.45398 0.647299
O -3.13114 1.34188 -0.506382
O -3.37414 0.653901 0.704921
O -2.31642 -2.56243 -0.574666
O -1.67676 -3.0113 0.646204
O 1.73788 -3.10041 -0.704712
O 2.32832 -2.5941 0.517038
O 3.15426 -1.44428 0.511621
O 3.4424 -0.715614 -0.639749
O 2.34357 2.62288 0.562646
O 1.64859 2.94161 -0.588755
O -1.77121 2.97383 0.596061
O -2.34279 2.49663 -0.536669
O -3.40238 -0.804063 0.675757
O -3.22215 -1.4582 -0.603781
O -0.339129 -3.47187 0.610929
O 0.376493 -3.53361 -0.671331
C -1.88759 7.91015 2.93487
C -2.71863 7.00804 2.6676
H -25.2478 -0.753188 1.38584
C 5.09186 1.25467 37.3306
C 5.01883 1.36097 36.1398
C -22.6563 26.2054 -15.028
C -23.2546 27.2533 -14.7537
C -0.474228 -36.8144 -36.6882
C -0.896821 -35.7271 -36.3489
C 21.753 -31.9293 -19.7074
C 22.778 -31.3024 -19.572
C -26.2436 -1.29104 1.21577
C -27.2166 -1.91679 0.934443
C -3.57641 6.10963 2.29281
C -4.29156 5.32367 1.79968
C -23.7808 28.4171 -14.5061
C -24.2837 29.4715 -14.1985
C -1.24228 1.42588 -6.76777
C -1.50562 2.53733 -6.8789
C -0.986837 0.0389869 -6.64434
C -0.855393 -1.11858 -6.46846
C 30.2156 -23.6862 -19.1459
C 31.1861 -24.4063 -19.1771
H -1.76909 3.62658 -6.97107
C 4.12511 -22.9307 35.017
C 3.04433 -22.4124 34.8519
C -0.59474 -2.37022 -6.31018
C -0.382455 -3.57968 -5.95722
C 19.7174 -33.3691 -19.8049
C 20.6708 -32.614 -19.7465
C 1.53214 6.79594 -2.39469
C 1.63584 7.80354 -1.73908
C -39.5505 -21.4959 -12.6019
C 39.3662 -21.0102 -12.3474
C 21.2876 6.11542 19.2628
C 20.4667 6.71299 19.9155
C 7.52123 -24.521 34.8134
C 8.67274 -25.0046 34.6122
C 6.47232 -24.0515 35.0784
C 5.3186 -23.4701 35.1379
C 0.342082 -5.96184 -5.29983
C -0.0476992 -4.80071 -5.70231
C -9.89438 -2.57196 -0.782811
C -9.34091 -1.63762 -0.460746
H -10.4002 -3.50064 -1.07733
C 16.217 12.4021 33.7077
C 17.1543 12.5203 32.8623
C 34.3521 -38.8435 -26.7699
C 34.2453 -39.931 -27.1058
C 13.8758 -13.6154 -9.39222
C 14.1108 -14.7899 -9.38108
C 38.7873 -5.45263 23.9652
C 38.7893 -5.29746 22.6753
C 34.1485 38.7654 -27.5631
C 34.135 37.6186 -27.7877
C 38.8758 -5.74429 25.2481
C 39.1556 -5.86017 26.4354
C -4.01141 27.4927 -0.59015
C -4.61433 26.9877 -1.51365
C -36.6405 -35.8975 36.254
C -35.8972 -36.5056 36.9855
C -6.52019 2.36724 0.870629
C -7.14155 1.42952 0.595132
C -5.77916 3.42661 1.12592
C -5.08509 4.40287 1.41952
H 34.5178 -37.8071 -26.477
C 20.0485 -12.6812 4.99504
C 21.0577 -12.9569 5.57356
C -7.9786 0.415263 0.260046
C -8.66861 -0.464685 -0.0336745
C 19.9961 25.5172 -18.1536
C 19.9193 24.5022 -18.7907
C 38.5912 -4.21867 17.7673
C 38.5477 -4.5401 19.0002
C 10.9014 -26.0991 34.4497
C 9.79723 -25.6408 34.4419
C 38.6209 -5.05353 21.4839
C 38.5421 -4.75905 20.2448
C 1.37171 5.82646 -3.17472
C 1.19484 4.88758 -3.98532
C -1.06734 8.8533 3.33543
C -0.30761 9.76289 3.80115
C 38.4108 -3.57461 15.4306
C 38.5441 -3.92522 16.6401
C -21.5585 -16.0385 -31.5841
C -21.3101 -15.9805 -30.3973
H 15.3604 12.2303 34.3364
C -38.9963 -13.022 -1.44933
C -38.0785 -12.7459 -2.25215
C 38.1221 -2.61622 13.1527
C 38.2034 -3.15637 14.2567
C 27.361 20.1662 31.7503
C 26.3669 20.3276 32.4137
C -32.0479 13.5284 -28.9962
C -31.3586 12.5363 -29.0189
C 16.4024 -5.01826 30.4396
C 15.1952 -4.87182 30.397
C -7.83108 29.7644 37.3518
C -6.87992 30.4937 37.6108
C -19.1815 16.1553 33.8289
C -18.8282 15.5302 34.7978
C 6.51916 -37.184 14.4097
C 7.084 -37.04 13.3286
C -25.5615 36.9892 -18.8218
C -25.2545 37.3213 -19.9405
C -12.8091 -26.7537 -10.9654
C -12.5359 -25.5782 -11.0022
H 3.68333 15.7719 10.2559
C -28.2516 35.9124 -24.7962
C -29.4454 35.867 -24.9293
C 28.3017 17.0499 0.711479
C 28.1123 18.2213 0.820969
C -29.9091 8.82563 11.7448
C -30.0173 7.82602 12.5437
C -6.42375 13.8567 -8.78612
C -5.50715 14.5793 -9.22573
C 37.1071 -24.8187 -35.6445
C 37.2684 -25.7645 -36.4307
C -22.5489 24.6137 -20.213
C -22.4973 25.3161 -19.2329
C -22.6227 8.15778 -8.9272
C -23.8713 8.20575 -9.29079
C -27.8975 -3.61318 4.34654
C -29.1696 -3.59292 4.63631
C -19.6825 36.8099 32.6021
C -19.7121 36.2308 33.7449
186
Atoms. Timestep: 20000
O 0.972481 0.70588 3.39056
O 1.98534 1.43677 2.66538
O -0.393795 1.17487 3.34006
O -0.719516 2.36899 2.55957
O -1.25103 0.006 3.38995
O -2.47035 0.00682 2.63587
O -0.398831 -1.19056 3.37046
O -0.746619 -2.35754 2.61148
O 0.956698 -0.728113 3.397
O 1.90284 -1.45624 2.60303
O 2.51365 -0.0463097 -2.43915
O 1.34321 -0.0524284 -3.19981
O 0.833766 2.35921 -2.5249
O 0.542517 1.11257 -3.20655
O -1.85775 1.44805 -2.52053
O -0.820962 0.669037 -3.12324
O -1.94913 -1.38422 -2.53907
O -0.935805 -0.741229 -3.25551
O 0.804554 -2.33812 -2.42044
O 0.428946 -1.16529 -3.19045
O 2.91225 -0.72797 1.84621
O 2.95306 0.687432 1.91836
O 1.57294 2.5849 1.87126
O 0.25366 3.09186 1.86237
O -1.9591 2.37475 1.86459
O -2.80628 1.21701 1.84949
O -2.84758 -1.12814 1.80446
O -1.96961 -2.25251 1.80714
O 0.24848 -3.0825 1.86287
O 1.64362 -2.68139 1.89226
O 2.85171 1.176 -1.70815
O 2.01812 2.32534 -1.74809
O -0.178652 3.05958 -1.79734
O -1.5464 2.6668 -1.8223
O -2.93805 0.812416 -1.79791
O -2.98637 -0.649094 -1.87382
O -1.53012 -2.50049 -1.762
O -0.183855 -3.02657 -1.69334
O 2.03926 -2.34976 -1.70578
O 2.85196 -1.17416 -1.70614
O 3.39457 0.623382 -0.471508
O 3.20651 1.35535 0.718035
O 0.400936 3.41301 -0.534992
O -0.368933 3.41939 0.620592
O -3.22599 1.53619 -0.600115
O -3.40108 0.814843 0.618793
O -2.34006 -2.49147 -0.566026
O -1.70369 -2.95148 0.609881
O 1.83142 -3.09794 -0.490487
O 2.42517 -2.65707 0.715598
O 3.23348 -1.49058 0.71212
O 3.53825 -0.796988 -0.471851
O 2.32279 2.51302 0.684562
O 1.78835 3.03748 -0.548539
O -1.68367 3.0153 0.663564
O -2.31744 2.62219 -0.57876
O -3.38547 -0.614997 0.586669
O -3.14043 -1.29552 -0.63871
O -0.33484 -3.37691 0.621094
O 0.418297 -3.47554 -0.504309
C -2.46021 7.19676 3.18804
C -3.22164 6.34813 2.68319
H -27.9392 3.00957 3.21238
C 13.681 -1.51057 30.5342
C 13.8187 -0.565124 29.7816
C -31.0111 27.1994 -14.1035
C -31.0602 26.1154 -13.5221
C -2.83229 30.1296 -36.8622
C -3.2674 29.0868 -36.4697
C 16.46 -30.5169 -15.9876
C 15.5958 -30.2219 -16.8238
C -27.1496 2.3964 2.80529
C -26.2567 1.75623 2.26213
C -4.01295 5.39768 2.35657
C -4.70182 4.46384 1.8782
C -30.9941 24.9058 -13.0307
C -30.8656 23.8128 -12.5443
C -0.65293 -2.73297 -6.49463
C -1.59371 -2.60158 -7.1031
C 0.676371 -2.77037 -5.86631
C 1.7165 -2.94512 -5.41114
C 29.0014 -23.7491 -20.0485
C 27.9701 -23.9741 -19.4482
H -2.47058 -2.3854 -7.73415
C 5.55395 -29.4809 34.2956
C 4.52701 -29.6829 34.9362
C 2.96754 -3.00481 -4.97616
C 4.13895 -2.91429 -4.71732
C 18.0559 -31.3309 -14.2747
C 17.2829 -30.9997 -15.1257
C -0.34604 1.71028 -6.54907
C -1.40558 1.16422 -6.57442
C -37.4408 -19.524 -16.0837
C -36.7811 -19.6888 -17.1009
C 20.5254 3.96836 11.1361
C 19.9308 5.01346 11.2756
C 8.89195 -29.1066 32.7629
C 9.97902 -29.0426 32.1769
C 7.74509 -29.1842 33.1196
C 6.64238 -29.2924 33.6337
C 6.60263 -2.63899 -4.15285
C 5.39954 -2.83125 -4.50504
C -8.70671 -3.71256 -2.21482
C -8.41384 -2.66894 -1.84258
H -9.0298 -4.68473 -2.60475
C 12.043 10.5169 23.747
C 11.1665 10.6774 22.92
C 34.8276 -33.6451 -27.3381
C 35.9108 -33.9055 -27.2005
C 15.002 -10.4545 -10.6236
C 15.3374 -11.647 -10.7219
C -34.8063 -9.54506 24.5433
C -35.9773 -9.44292 23.9837
C 37.3495 -34.2375 -27.259
C 38.4597 -34.5096 -27.5649
C -33.7252 -9.54642 25.1868
C -32.7126 -9.72843 25.9003
C -8.82548 37.1618 -4.64213
C -7.94265 37.9419 -4.90369
C -30.9316 -36.9067 -36.8702
C -30.9767 -37.7672 -36.02
C -6.49881 1.45561 0.286573
C -6.94149 0.505866 -0.223667
C -5.92308 2.47316 0.79931
C -5.38694 3.52362 1.36162
H 33.7316 -33.4007 -27.3706
C 21.6424 -1.495 -0.896114
C 22.6419 -1.78218 -0.31096
C -7.40523 -0.589124 -0.786483
C -7.87106 -1.5328 -1.26455
C 13.3127 27.7008 -25.3176
C 13.6282 28.6152 -24.5642
C 39.4445 -8.78668 22.1275
C -39.4043 -8.96283 22.5604
C 12.3571 -28.9053 31.2883
C 11.1972 -29.0121 31.6886
C -37.0931 -9.2926 23.5231
C -38.2715 -9.16993 23.0591
C 0.81712 2.21239 -6.46027
C 1.94003 2.7336 -6.30565
C -1.6536 8.01129 3.7959
C -0.963754 8.75796 4.52103
C 37.3058 -8.05464 21.0836
C 38.3248 -8.4801 21.6276
C -20.2843 -13.2303 -36.807
C -20.4222 -13.0437 -38.0043
H 12.7614 10.3914 24.5334
C -36.6468 -12.3922 -7.46679
C -36.1514 -11.3855 -6.92745
C 35.0691 -7.431 20.2137
C 36.1493 -7.7757 20.6489
C 26.7202 23.0453 32.1307
C 26.473 24.0056 32.8164
C -22.9535 17.5917 -19.9282
C -23.6646 18.5676 -19.9671
C 15.7241 -4.66504 32.9694
C 14.5311 -4.93474 32.8892
C -4.93259 30.2868 39.5229
C -5.39951 29.966 38.4734
C -20.5935 8.78133 32.5162
C -21.1444 9.79534 32.1809
C -5.75509 -24.605 4.95529
C -5.16431 -24.6203 3.89942
C -22.4308 -37.1183 -29.4258
C -22.0229 -36.7612 -30.4893
C -11.1629 -24.7608 -11.1991
C -11.5508 -25.5957 -12.0012
H 27.8354 14.3167 12.2137
C -21.1795 24.2558 -22.3534
C -19.9658 24.239 -22.2294
C 21.575 19.4389 -5.67037
C 22.6848 19.2271 -6.17531
C -30.9245 10.7084 25.0309
C -31.4108 9.9173 24.1389
C -6.8527 18.5664 2.65554
C -6.87767 19.7728 2.94897
C -39.9656 -29.8193 -29.8876
C 39.3864 -29.0914 -29.125
C -19.0285 22.3329 -11.2791
C -19.7693 21.8744 -10.4438
C -25.5395 11.5296 -26.5774
C -25.1063 10.6727 -25.7657
C -23.3197 -1.50085 10.0276
C -24.3493 -1.05814 10.3982
C -24.2141 39.0434 35.5246
C -23.9874 -39.7064 35.7385
186
Atoms. Timestep: 40000
O 0.904506 0.764454 3.39031
O 1.87354 1.46292 2.62301
O -0.439061 1.17407 3.36584
O -0.760647 2.3664 2.59217
O -1.25103 0.006 3.38995
O -2.47035 0.00682 2.63587
O -0.421535 -1.13708 3.36071
O -0.750603 -2.28993 2.54265
O 0.964538 -0.67979 3.37536
O 1.89922 -1.41382 2.59059
O 2.49354 0.0048049 -2.56625
O 1.24442 0.00942064 -3.35699
O 0.81972 2.37589 -2.64425
O 0.401107 1.17493 -3.38257
O -1.92444 1.41375 -2.61306
O -0.988692 0.732887 -3.48302
O -1.90768 -1.38633 -2.55436
O -0.94 -0.727032 -3.35874
O 0.742399 -2.28566 -2.474
O 0.406042 -1.16214 -3.28881
O 2.94011 -0.706949 1.82911
O 2.83915 0.706649 1.84419
O 1.5651 2.63249 1.86587
O 0.25366 3.09186 1.86237
O -1.97327 2.33581 1.80544
O -2.83711 1.17778 1.8581
O -2.73111 -1.10339 1.76162
O -1.93703 -2.3232 1.77744
O 0.24848 -3.0825 1.86287
O 1.61104 -2.61366 1.89073
O 2.7953 1.132 -1.80531
O 2.01592 2.24355 -1.85149
O -0.175957 3.0006 -1.86532
O -1.51492 2.55531 -1.9114
O -2.88965 0.730867 -1.80053
O -2.90719 -0.678313 -1.76514
O -1.55515 -2.57527 -1.78996
O -0.206781 -3.07194 -1.78444
O 1.95288 -2.28369 -1.77475
O 2.87293 -1.17775 -1.81351
O 3.42212 0.748829 -0.573779
O 3.13508 1.45664 0.616179
O 0.413439 3.43457 -0.596143
O -0.311933 3.52569 0.638841
O -3.11786 1.41691 -0.62016
O -3.42791 0.740769 0.603382
O -2.37731 -2.64555 -0.602166
O -1.79776 -3.12444 0.621414
O 1.72949 -3.04283 -0.551791
O 2.3577 -2.59206 0.645724
O 3.1912 -1.40515 0.626976
O 3.39004 -0.679953 -0.579044
O 2.33925 2.58027 0.680947
O 1.77124 2.96743 -0.603562
O -1.62015 2.96006 0.582308
O -2.19603 2.5474 -0.634645
O -3.47274 -0.731837 0.596826
O -3.04838 -1.41204 -0.56089
O -0.379261 -3.52336 0.697045
O 0.330972 -3.47003 -0.497849
C -2.70763 6.34693 3.11177
C -3.51699 5.47085 2.46552
H -27.3115 6.68283 2.93512
C 22.3015 -7.61414 28.1828
C 22.6444 -6.48248 28.0034
C -39.0236 22.1912 -10.5709
C -38.541 22.7574 -11.6013
C -7.38515 18.6284 39.0888
C -6.53068 18.962 38.3241
C 12.3166 -29.7798 -11.0738
C 11.9753 -30.7839 -10.4822
C -26.7706 6.07822 3.67264
C -26.0055 5.64632 4.60315
C -4.18966 4.70081 1.75912
C -4.80365 3.75199 1.08888
C -38.0084 23.2934 -12.6711
C -37.5136 23.9385 -13.6304
C 6.32553 -4.15577 -1.70299
C 6.65036 -4.81445 -0.828321
C 6.07776 -3.23445 -2.70602
C 5.76246 -2.46276 -3.51815
C 26.1789 -24.1782 -20.0028
C 26.3723 -23.1767 -20.6649
H 6.97681 -5.39812 0.001395
C 7.91381 -35.9102 33.0937
C 7.43701 -36.6688 33.8807
C 5.19281 -1.61678 -4.23151
C 4.4772 -0.742243 -4.87023
C 12.9705 -27.6778 -12.3176
C 12.6469 -28.6961 -11.7565
C 1.50774 -1.93889 -6.11726
C 2.11818 -2.356 -5.18269
C -34.212 -17.8362 -21.2976
C -34.0609 -18.0907 -20.1039
C 19.6649 2.01201 3.04546
C 19.4961 3.13185 2.63707
C 10.0392 -33.7427 30.7594
C 10.802 -32.9796 30.0935
C 9.29668 -34.4727 31.4666
C 8.55867 -35.2297 32.2247
C 3.50636 1.02522 -6.32384
C 3.80478 0.199819 -5.48856
C -7.92724 -3.60521 -5.00848
C -8.01285 -2.7428 -4.30598
H -7.81428 -4.45316 -5.70483
C 7.01693 8.93466 13.1046
C 6.26315 8.46666 13.9112
C 33.9192 -32.3516 -22.8213
C 34.8922 -32.372 -23.4159
C 16.1332 -7.33322 -11.853
C 16.5538 -8.47851 -12.059
C -32.6519 -12.9435 23.4325
C -33.5901 -12.8523 24.2648
C 36.0008 -32.4799 -24.3121
C 36.899 -32.6694 -25.1272
C -31.6591 -13.1531 22.6872
C -30.7079 -13.2827 21.8512
C -12.3498 -32.0603 -9.07714
C -12.5424 -32.2589 -7.89403
C -25.266 -38.105 -29.8219
C -26.0181 -38.8273 -29.2286
C -6.36257 1.02188 -1.09044
C -6.81485 0.232958 -1.80864
C -5.94892 1.99049 -0.241285
C -5.41249 2.88869 0.507207
H 32.9408 -32.3264 -22.2959
C 23.2067 9.65978 -6.77736
C 24.2485 9.37379 -6.179
C -7.38655 -0.79493 -2.6986
C -7.76699 -1.63576 -3.34371
C 7.26849 31.6682 -30.9866
C 6.72696 30.9302 -31.8038
C -37.7233 -13.0937 27.2525
C -36.6529 -12.775 26.597
C 12.3115 -31.8401 28.5617
C 11.5508 -32.352 29.3533
C -34.6132 -12.795 25.1002
C -35.6355 -12.6904 25.8546
C 0.828496 -1.51846 -7.11958
C 0.282008 -1.00246 -8.08309
C -1.87379 7.17207 3.46603
C -0.961163 7.95012 3.68871
C -39.8635 -13.5894 28.4668
C -38.8045 -13.2349 27.881
C -19.2862 -10.0683 35.6334
C -19.2631 -10.4735 36.7541
H 7.6723 9.42947 12.2858
C -33.9168 -10.9726 -13.0425
C -34.6144 -10.8194 -12.0206
C 38.141 -13.9291 29.9272
C 39.1071 -13.7786 29.2148
C 25.9594 26.3198 32.8076
C 26.7004 27.2734 32.9209
C -13.5728 23.7978 -13.7988
C -12.8915 22.7992 -13.6746
C 14.7091 -0.476147 31.1163
C 14.1105 -1.49387 30.7576
C -1.27328 26.9994 -35.5694
C -1.59166 26.6951 -34.4464
C -22.9939 3.24885 30.6001
C -22.4639 2.2484 30.1762
C -18.0033 -12.0454 -4.47923
C -17.3837 -12.2373 -5.5073
C -19.3737 -31.3267 39.9371
C -18.8581 -30.9712 38.9019
C -10.1774 -24.1702 -12.8073
C -9.91096 -24.2152 -11.6229
H -28.0666 12.8647 14.1672
C -13.3599 12.1778 -16.8135
C -14.5368 12.411 -16.8513
C 16.403 21.5345 -12.7383
C 15.7298 20.5187 -12.4555
C -32.3501 11.8877 37.4562
C -32.2875 12.7407 36.5858
C -7.3172 23.8515 14.2302
C -8.2086 24.3688 14.9378
C -30.5254 -23.8196 -29.5702
C -30.5379 -23.5117 -30.7316
C -16.4092 20.0251 -1.50535
C -16.8874 19.0326 -1.98829
C -27.8391 13.8002 37.0482
C -27.08 14.6925 36.5251
C -19.302 0.549313 15.4449
C -19.8441 1.30723 16.2766
C -28.4383 -37.0677 38.6624
C -28.5504 -37.313 37.5059
186
Atoms. Timestep: 60000
O 0.97307 0.75072 3.33222
O 1.90048 1.51728 2.61004
O -0.42146 1.16565 3.30081
O -0.787846 2.33953 2.53386
O -1.25103 0.006 3.38995
O -2.47035 0.00682 2.63587
O -0.380586 -1.10395 3.25734
O -0.763139 -2.3531 2.57348
O 0.924447 -0.629169 3.23568
O 1.94878 -1.35137 2.54429
O 2.37675 0.010525 -2.532
O 1.1949 -0.0399208 -3.31924
O 0.654108 2.29276 -2.58676
O 0.307435 1.12455 -3.32353
O -2.00517 1.38189 -2.5856
O -1.04076 0.687652 -3.40496
O -1.96226 -1.4612 -2.50356
O -0.978488 -0.732585 -3.24697
O 0.779373 -2.36272 -2.49263
O 0.343609 -1.18604 -3.21931
O 2.91861 -0.652659 1.82948
O 2.8538 0.780758 1.82183
O 1.60435 2.73154 1.91918
O 0.25366 3.09186 1.86237
O -2.01139 2.27173 1.82597
O -2.69605 1.08015 1.82438
O -2.83892 -1.1716 1.91724
O -2.04646 -2.3712 1.92915
O 0.24848 -3.0825 1.86287
O 1.56078 -2.5244 1.86934
O 2.71652 1.18379 -1.75962
O 1.79015 2.25646 -1.7502
O -0.340215 3.03228 -1.82549
O -1.68228 2.53514 -1.79764
O -3.01409 0.635363 -1.83172
O -2.98614 -0.779096 -1.75829
O -1.6063 -2.64632 -1.74101
O -0.208748 -3.06613 -1.77702
O 1.88342 -2.31351 -1.70671
O 2.70417 -1.16349 -1.75882
O 3.27533 0.737529 -0.558101
O 3.1199 1.53964 0.643165
O 0.23806 3.45222 -0.602956
O -0.430266 3.46889 0.644745
O -3.25641 1.35579 -0.642054
O -3.31599 0.637 0.605423
O -2.37671 -2.64662 -0.533107
O -1.77263 -3.07882 0.699843
O 1.71532 -2.98856 -0.499247
O 2.37087 -2.58061 0.665448
O 3.22643 -1.38719 0.661332
O 3.39152 -0.664213 -0.566314
O 2.30249 2.70792 0.689364
O 1.61513 3.03371 -0.551575
O -1.76958 2.95918 0.617925
O -2.42851 2.5185 -0.541418
O -3.36989 -0.775589 0.665034
O -3.19566 -1.50563 -0.545357
O -0.401451 -3.5422 0.67606
O 0.365861 -3.42968 -0.51167
C -4.38517 5.93234 4.47218
C -4.65049 5.20225 3.38865
H -25.2967 9.2487 4.23639
C 30.175 -13.8196 27.1063
C 30.6349 -12.8 27.5546
C 35.6214 20.1855 -12.347
C 34.7988 20.3903 -11.4643
C -10.3581 9.14085 33.2302
C -11.1838 9.72487 33.8768
C 8.70322 -27.4392 -7.09267
C 9.80909 -27.0351 -6.79145
C -25.8654 9.54229 5.13893
C -26.3985 9.82927 6.20573
C -4.92714 4.50211 2.48125
C -5.44834 3.60322 1.69576
C 34.0368 20.7464 -10.4468
C 33.3663 21.0276 -9.49961
C 7.00525 2.66685 0.371684
C 7.52848 3.14592 1.25511
C 6.45983 2.145 -0.849926
C 5.94063 1.91273 -1.83773
C 23.6513 -23.0587 -20.9756
C 24.4896 -23.9285 -20.8605
H 8.11577 3.62995 2.04798
C 11.0359 38.3091 31.0943
C 10.9135 37.3358 31.8112
C 5.31932 1.73313 -3.0095
C 4.83987 1.48811 -4.04243
C 6.40062 -28.41 -7.74822
C 7.55063 -27.9356 -7.45354
C 1.54556 -6.52859 -1.45903
C 2.29973 -6.24294 -0.590285
C -30.7289 -16.5891 -24.4563
C -31.6083 -16.0591 -25.1435
C 18.7862 0.239589 -5.10072
C 19.0824 1.07495 -5.9082
C 11.1683 -38.5985 29.0765
C 11.1824 -37.5255 28.3594
C 11.207 -39.5834 29.7261
C 11.0878 39.3501 30.3928
C 4.25527 0.740466 -6.34041
C 4.51701 1.16782 -5.26007
C -5.73478 -3.91101 -4.72042
C -5.84122 -3.02036 -4.0058
H -5.64804 -4.71348 -5.37611
C 0.979472 6.34462 3.01032
C 2.07196 6.43014 3.56727
C 33.4215 -33.2216 -17.9074
C 32.7622 -33.0733 -18.8108
C 17.2651 -4.22686 -13.0816
C 17.7641 -5.30931 -13.3911
C -34.0688 -16.6066 24.9148
C -33.9807 -17.0368 26.0739
C 31.8867 -32.9777 -19.9836
C 31.1516 -33.1332 -20.9335
C -34.2007 -16.1168 23.7343
C -34.2018 -15.6492 22.6125
C -15.5898 -21.3212 -12.0362
C -16.342 -21.927 -12.7458
C -19.7635 -39.4164 -22.6983
C -20.9093 -39.7647 -22.5442
C -6.27765 0.877915 -0.808739
C -6.07947 -0.0584083 -1.54855
C -6.16121 1.87156 0.0527022
C -5.88649 2.77315 0.956345
H 34.0142 -33.3649 -16.9856
C 24.7996 20.7754 -12.6224
C 25.8195 20.5187 -12.0567
C -5.83948 -1.07238 -2.32712
C -5.7174 -1.95493 -3.06781
C 0.173073 34.1813 -38.2428
C 0.898264 34.6771 -37.4271
C -33.4828 -18.1306 31.0019
C -33.7416 -17.8253 29.7905
C 11.1441 -35.4594 26.9201
C 11.1619 -36.4233 27.6177
C -33.834 -17.353 27.2799
C -33.7827 -17.5538 28.5466
C 0.73329 -6.86647 -2.39305
C -0.011321 -7.38439 -3.23319
C -4.08021 6.53976 5.50706
C -3.93788 7.09769 6.61124
C -33.1592 -18.3903 33.5007
C -33.3313 -18.2464 32.2567
C -18.2427 -7.71176 30.3215
C -18.1605 -7.10542 29.2914
H 0.023275 6.38134 2.55159
C -31.7952 -9.40214 -17.6987
C -32.4787 -10.4088 -18.0092
C -32.8362 -18.4841 36.0122
C -33.0607 -18.5094 34.7913
C 25.541 30.0451 33.5461
C 26.5865 30.0757 32.9619
C -1.9918 27.7349 -9.01263
C -2.70218 28.6833 -9.25169
C 14.2185 3.63727 27.7981
C 14.7116 2.53433 27.5049
C 1.75359 21.7944 -28.2816
C 2.66726 22.5123 -28.7018
C -24.4305 -4.07424 27.9315
C -24.7324 -3.48376 28.9349
C -30.2105 0.483253 -13.9156
C -29.589 0.12046 -14.8698
C -16.3305 -25.5454 29.3085
C -15.7044 -25.2016 28.333
C -9.29458 -23.9345 -12.2418
C -9.24063 -23.0247 -13.0133
H -4.02292 11.4159 16.1162
C -8.75744 0.831392 -9.78641
C -7.58178 0.497313 -9.79828
C 10.2202 22.159 -19.3592
C 9.81294 23.2736 -19.1526
C -31.7548 14.8221 -31.2574
C -31.5178 15.153 -30.0288
C -8.18109 29.3599 26.0973
C -9.13609 28.7192 26.581
C -17.1491 -13.8297 -33.3189
C -16.9348 -12.828 -32.6759
C -14.1503 16.9913 7.89486
C -13.6576 16.9283 6.79925
C -30.8592 16.599 20.0855
C -31.9856 16.8171 19.6254
C -15.335 2.72504 21.0011
C -15.3075 3.53717 21.9906
C -32.8155 -33.5482 -39.8696
C -32.9405 -34.5644 -39.068
186
Atoms. Timestep: 80000
O 0.980071 0.697558 3.31559
O 1.87359 1.37737 2.51847
O -0.374212 1.17927 3.39098
O -0.710985 2.31368 2.60352
O -1.25103 0.006 3.38995
O -2.47035 0.00682 2.63587
O -0.408992 -1.13283 3.29141
O -0.763318 -2.28275 2.53654
O 0.920488 -0.716601 3.30261
O 1.96788 -1.47982 2.61886
O 2.37874 -0.027712 -2.59365
O 1.12331 -0.0484486 -3.26298
O 0.753807 2.23108 -2.41828
O 0.25463 1.15071 -3.22066
O -2.07415 1.42158 -2.52042
O -1.10794 0.714415 -3.19065
O -2.02127 -1.486 -2.56431
O -1.05527 -0.711377 -3.21258
O 0.643845 -2.30465 -2.49585
O 0.260251 -1.17853 -3.29053
O 2.94813 -0.762279 1.85491
O 2.84212 0.656109 1.84286
O 1.57708 2.61371 1.84152
O 0.25366 3.09186 1.86237
O -1.95798 2.26169 1.86663
O -2.82703 1.14994 1.86108
O -2.84247 -1.13417 1.84984
O -2.02125 -2.35299 1.83277
O 0.24848 -3.0825 1.86287
O 1.58291 -2.63809 1.88526
O 2.76233 1.03461 -1.7029
O 1.8885 2.13839 -1.66183
O -0.213408 3.02398 -1.72481
O -1.58433 2.5777 -1.77428
O -3.01932 0.689122 -1.73715
O -2.98115 -0.726127 -1.76665
O -1.62879 -2.63027 -1.77589
O -0.309166 -3.19439 -1.84199
O 1.86817 -2.34148 -1.76502
O 2.70038 -1.19267 -1.77575
O 3.36132 0.619463 -0.482169
O 3.1667 1.42566 0.743891
O 0.404365 3.50754 -0.521291
O -0.368818 3.52354 0.658594
O -3.22642 1.42982 -0.535984
O -3.41961 0.714755 0.682466
O -2.38023 -2.61903 -0.618956
O -1.78968 -3.05239 0.587295
O 1.72482 -3.05734 -0.58511
O 2.32847 -2.66731 0.633591
O 3.15929 -1.48942 0.63719
O 3.42303 -0.807905 -0.577741
O 2.43528 2.66231 0.659948
O 1.77097 2.97857 -0.544257
O -1.77821 3.04729 0.723158
O -2.33654 2.59672 -0.514303
O -3.44225 -0.712634 0.638941
O -3.22305 -1.4631 -0.572034
O -0.370075 -3.42101 0.669799
O 0.340137 -3.51825 -0.59348
C -4.77286 6.21606 3.0046
C -5.22425 5.03096 2.56206
H -24.2831 12.7949 7.60684
C 38.1898 -19.9157 26.1238
C 38.6813 -19.3 27.0485
C 26.1054 19.6122 -9.22602
C 26.8981 18.6859 -9.54388
C -14.4778 1.06596 27.4535
C -14.1937 -0.128329 27.3659
C 3.48314 -25.8035 -3.58098
C 2.81323 -25.2794 -4.47112
C -25.2822 13.2112 7.26778
C -26.383 13.7529 6.98333
C -5.6613 4.02398 2.11839
C -6.04248 2.861 1.57229
C 27.4965 17.6222 -9.96477
C 28.0189 16.6013 -10.3486
C 1.63782 6.98671 0.200711
C 0.719442 7.49839 0.696543
C 2.71632 6.45725 -0.380608
C 3.46109 5.69443 -0.904276
C 22.4001 -23.3009 -21.7571
C 21.3149 -23.3175 -21.2515
H -0.160332 7.91512 1.11462
C 14.1393 33.5357 28.5644
C 14.7017 32.4582 28.9259
C 4.28152 4.87542 -1.47954
C 5.01772 3.93583 -1.98413
C 4.57571 -27.1324 -1.76533
C 4.08401 -26.465 -2.66576
C 0.727006 -4.01352 5.64695
C 0.287387 -3.27531 6.52694
C -28.7412 -14.4263 -28.7923
C -27.6417 -14.9213 -29.0244
C 18.4701 -0.0471435 -11.7471
C 19.6503 0.144685 -11.8876
C 12.1889 36.5141 27.3308
C 11.5121 37.4515 26.9937
C 12.9212 35.5194 27.6902
C 13.5703 34.5008 28.0968
C 6.29937 1.93789 -2.75443
C 5.65418 2.93479 -2.43089
C -6.86552 -6.33486 -2.61622
C -6.82285 -5.31398 -2.15178
H -6.83949 -7.2577 -3.15965
C -4.32377 7.73058 -2.88755
C -3.32208 8.31347 -2.66092
C 30.715 -33.7901 -15.8731
C 29.8126 -33.7669 -15.148
C 18.2616 -3.4204 -16.6987
C 17.5694 -2.44389 -16.4684
C -35.0742 -21.2232 30.6367
C -33.9515 -21.3704 31.1687
C 28.7462 -33.7096 -14.3633
C 27.7149 -33.7402 -13.7293
C -36.2981 -21.0684 30.2062
C -37.481 -20.9798 29.9337
C -18.8301 -11.2259 -16.285
C -18.0354 -10.5007 -16.8486
C -14.4569 39.1635 -15.482
C -15.5672 39.3986 -15.9036
C -6.43368 -0.400516 -0.586765
C -6.5584 -1.45416 -1.02921
C -6.40452 0.753189 0.150732
C -6.21892 1.85443 0.873981
H 31.5166 -33.703 -16.6221
C 26.4449 31.9258 -18.474
C 27.4611 31.6701 -17.911
C -6.70313 -2.77915 -1.45667
C -6.71741 -3.89369 -1.76357
C -5.62325 37.6419 36.0733
C -6.5233 37.27 35.326
C -29.3173 -22.0691 33.038
C -30.4677 -21.8774 32.549
C 10.0832 39.4185 26.3146
C 10.814 38.4684 26.5951
C -32.8001 -21.5076 31.671
C -31.6403 -21.6737 32.0489
C 1.2881 -4.81167 4.79528
C 1.72691 -5.50967 3.86455
C -4.23999 7.34767 3.37302
C -3.70122 8.42523 3.74076
C -26.9946 -22.4352 34.0596
C -28.2116 -22.2396 33.6463
C -17.2205 -4.08411 22.9448
C -17.3897 -4.87573 23.8215
H -5.28355 7.18551 -3.15906
C -30.3228 -8.78642 -22.6596
C -29.6765 -9.04672 -23.741
C -24.7071 -22.7533 35.0719
C -25.7953 -22.6426 34.5635
C 25.5993 33.78 34.0102
C 25.9941 32.8914 33.2801
C 8.2145 33.6011 -4.65616
C 8.93869 32.673 -4.36664
C 13.9527 7.35188 24.3618
C 15.0884 6.99015 24.3471
C 6.84354 19.1813 -21.4272
C 5.95018 18.5368 -21.9284
C -26.2457 -10.4107 27.0842
C -26.2734 -10.3587 25.8875
C 37.5295 13.0554 -23.3674
C 38.1723 12.5226 -24.2831
C -13.2513 -19.7449 18.6513
C -12.5649 -19.4104 17.7178
C -9.40706 -22.3689 -12.7432
C -9.70027 -23.535 -12.8266
H 20.1054 9.96146 18.0735
C -3.03249 -6.53104 -7.54209
C -4.16251 -6.21787 -7.28913
C 2.85506 23.0543 -25.9677
C 3.97717 22.941 -26.4589
C -30.7713 18.3063 -18.1482
C -31.0173 17.0803 -18.4492
C -9.39095 34.7106 38.254
C -9.4786 33.4873 38.0237
C -3.44243 -2.47638 -36.2445
C -3.56693 -3.43472 -35.4635
C -11.52 13.9118 16.537
C -10.7799 14.8515 16.4091
C -35.5012 19.6562 2.48527
C -35.4115 18.6547 3.31365
C -11.737 4.64109 27.7356
C -10.897 5.17702 28.5096
C -37.3894 -31.472 -37.2837
C -37.1649 -30.3503 -36.7425
186
Atoms. Timestep: 100000
O 0.964013 0.741272 3.32314
O 1.99335 1.4121 2.63852
O -0.405453 1.1529 3.25608
O -0.756009 2.41177 2.64821
O -1.25103 0.006 3.38995
O -2.47035 0.00682 2.63587
O -0.412509 -1.11638 3.23679
O -0.775126 -2.34497 2.56686
O 0.928326 -0.690974 3.32053
O 1.94243 -1.3793 2.60395
O 2.53199 -0.0531452 -2.47669
O 1.31346 -0.0142324 -3.25746
O 0.768576 2.24058 -2.48782
O 0.486743 1.13634 -3.39201
O -1.83634 1.40427 -2.65578
O -0.887551 0.702571 -3.51735
O -1.89574 -1.44617 -2.65143
O -0.866183 -0.742898 -3.41652
O 0.870719 -2.33314 -2.50614
O 0.492458 -1.14156 -3.25864
O 2.94351 -0.736623 1.86107
O 2.9911 0.703174 1.87839
O 1.63694 2.61427 1.91504
O 0.25366 3.09186 1.86237
O -1.9284 2.38436 1.82396
O -2.69067 1.14575 1.8345
O -2.79144 -1.18553 1.83962
O -1.9578 -2.31847 1.79764
O 0.24848 -3.0825 1.86287
O 1.6237 -2.61224 1.89202
O 2.86009 1.14188 -1.72669
O 2.05787 2.3143 -1.81428
O -0.180805 3.01462 -1.76844
O -1.5143 2.51956 -1.80769
O -2.84263 0.700418 -1.86696
O -2.81718 -0.732414 -1.86351
O -1.55787 -2.61901 -1.86392
O -0.184252 -2.99349 -1.79175
O 2.10659 -2.26228 -1.7088
O 2.94105 -1.15223 -1.71327
O 3.53987 0.708162 -0.553414
O 3.23012 1.42171 0.649936
O 0.494561 3.51838 -0.588768
O -0.24258 3.45972 0.57146
O -3.07897 1.36488 -0.596747
O -3.33229 0.686205 0.653415
O -2.24015 -2.61539 -0.605718
O -1.69638 -3.08681 0.606104
O 1.82274 -3.02527 -0.508861
O 2.42719 -2.62596 0.691468
O 3.30241 -1.48235 0.726173
O 3.56641 -0.739045 -0.537415
O 2.37064 2.5186 0.721324
O 1.81127 2.94625 -0.53717
O -1.61914 2.97612 0.57135
O -2.21131 2.46827 -0.617499
O -3.35843 -0.737403 0.602247
O -3.08753 -1.48019 -0.608794
O -0.337869 -3.44454 0.610634
O 0.438655 -3.41823 -0.565989
C -4.92826 7.01373 0.855675
C -5.09801 5.86932 0.293064
H -25.3734 17.4975 10.2665
C -32.4536 -26.1843 26.4408
C -32.2582 -26.2984 27.6327
C 20.1564 13.8833 -8.07973
C 20.0036 15.0901 -8.46372
C -15.9022 -5.87142 21.1203
C -14.9107 -5.83172 20.3924
C -0.898457 -25.2101 1.14178
C -1.49057 -26.1431 1.61753
C -25.4333 17.2305 9.21001
C -25.4667 17.1145 7.96087
C -5.21721 4.77861 -0.207387
C -5.50272 3.63723 -0.75525
C 19.7837 16.3666 -8.78818
C 19.6594 17.5158 -9.16761
C -1.41506 6.51497 -1.55565
C -1.58617 6.56166 -2.67398
C -1.28063 6.33157 -0.115012
C -1.31118 6.28235 1.0366
C 19.5769 -23.6254 -21.7511
C 19.7765 -22.6294 -22.4129
H -1.71992 6.52892 -3.7581
C 16.6324 29.6078 25.5763
C 17.7793 29.2234 25.3959
C -1.39571 6.16592 2.40357
C -1.2557 6.23603 3.68908
C 0.367335 -23.1491 0.389099
C -0.275307 -24.1276 0.729874
C 0.523098 3.14009 6.66666
C -0.436718 2.97839 7.42386
C -24.9367 -13.0624 -33.3638
C -25.6469 -12.8438 -32.3786
C 20.4961 1.81624 -15.3609
C 19.6639 1.5925 -14.5279
C 13.2833 31.3767 25.8691
C 12.1866 31.9643 25.8865
C 14.3766 30.8147 25.796
C 15.442 30.1245 25.7448
C -0.828856 6.73889 6.12271
C -1.0906 6.49469 4.92673
C -6.74995 -5.50619 -4.49093
C -6.90423 -4.4245 -4.15288
H -6.60172 -6.59022 -4.74148
C -5.37846 8.00509 -3.06442
C -4.28011 8.19785 -3.52855
C 25.0901 -34.1634 -11.7008
C 25.8702 -34.3525 -10.9247
C 17.9041 -3.61396 -22.6886
C 16.9256 -3.14233 -23.2638
C -32.3717 -26.4068 37.7433
C -31.2775 -26.158 37.0395
C 26.819 -34.5411 -9.74136
C 27.5444 -34.5208 -8.81014
C -33.4386 -26.6832 38.447
C -34.4547 -26.9862 39.0738
C -20.9869 -0.333341 -21.2649
C -20.7319 -0.188362 -20.0987
C -9.30863 37.9308 -8.55047
C -10.2215 38.4075 -9.17969
C -6.71395 0.174759 -1.93486
C -6.89394 -0.927806 -2.44924
C -6.33347 1.34189 -1.4492
C -5.84756 2.47297 -1.14527
H 24.402 -33.9421 -12.5001
C 28.0499 -37.1277 -24.2136
C 29.1323 -37.3181 -23.6846
C -6.94805 -2.07267 -3.12117
C -6.95966 -3.1309 -3.67054
C -14.5562 38.3458 30.1604
C -13.9098 39.1569 30.8053
C -27.1523 -25.5014 34.2972
C -28.14 -25.5717 35.1149
C 10.0088 33.1993 26.0451
C 11.0916 32.5917 25.9216
C -30.2473 -25.9178 36.4126
C -29.1741 -25.7408 35.783
C 1.5338 3.25263 5.84811
C 2.38324 3.51137 5.06203
C -4.6861 8.10591 1.35759
C -4.3295 9.25833 1.75201
C -25.1004 -25.6258 32.845
C -26.1167 -25.4881 33.6291
C -16.8748 -1.72996 16.0712
C -17.4048 -1.31604 15.0783
H -6.36676 7.89462 -2.56086
C -28.1503 -8.55152 -28.7797
C -27.568 -7.52136 -28.3301