207
Atoms. Timestep: 0
O 0.933212 0.673199 3.4337
O 1.88262 1.39611 2.61151
O -0.390723 1.15107 3.38939
O -0.727883 2.33973 2.62532
O -1.25103 0.006 3.38995
O -2.47035 0.00682 2.63587
O -0.420986 -1.19178 3.41006
O -0.693268 -2.42712 2.7084
O 0.955586 -0.776814 3.38493
O 1.96234 -1.49497 2.59285
O 2.52323 -0.0185988 -2.52751
O 1.33101 -0.0300139 -3.22233
O 0.788571 2.31925 -2.52668
O 0.482347 1.11798 -3.21156
O -1.82307 1.44527 -2.52405
O -0.855858 0.724509 -3.24803
O -1.87012 -1.41456 -2.57029
O -0.873085 -0.675293 -3.32515
O 0.885711 -2.35274 -2.53175
O 0.483376 -1.17466 -3.27784
O 2.94712 -0.756895 1.85896
O 2.87895 0.688533 1.85658
O 1.59852 2.6354 1.91333
O 0.25366 3.09186 1.86237
O -1.89455 2.28637 1.84192
O -2.74089 1.16155 1.89224
O -2.79197 -1.1345 1.88547
O -1.91933 -2.29349 1.93494
O 0.24848 -3.0825 1.86287
O 1.64565 -2.66869 1.83982
O 2.91936 1.19094 -1.79031
O 2.04047 2.333 -1.75333
O -0.157856 3.05468 -1.81632
O -1.53767 2.65494 -1.76935
O -2.80712 0.688748 -1.7656
O -2.86642 -0.744908 -1.80991
O -1.49305 -2.51763 -1.69859
O -0.103734 -2.99345 -1.69684
O 2.08648 -2.32276 -1.8048
O 2.98113 -1.20656 -1.76272
O 3.37221 0.667823 -0.531426
O 3.17171 1.42957 0.644201
O 0.42699 3.4684 -0.630697
O -0.33823 3.48592 0.597343
O -3.08187 1.44612 -0.580856
O -3.319 0.758204 0.652313
O -2.28144 -2.50536 -0.479509
O -1.73134 -2.9886 0.7204
O 1.79881 -2.98111 -0.562473
O 2.38209 -2.60839 0.629391
O 3.3223 -1.51447 0.685544
O 3.46364 -0.764752 -0.52367
O 2.44109 2.66864 0.689074
O 1.77036 3.05648 -0.533445
O -1.6007 2.88833 0.605191
O -2.28193 2.61456 -0.5813
O -3.40599 -0.675597 0.662849
O -3.14861 -1.36238 -0.588133
O -0.376315 -3.44893 0.643841
O 0.469066 -3.38489 -0.509466
C 5.81257 0.0423179 3.36626
C 5.27619 -0.0365983 4.51849
H -25.6576 -23.4676 -19.176
C -24.7556 7.40466 -37.3383
C -24.1574 8.32835 -36.8265
C -6.65194 11.1042 -3.09812
C -7.15051 11.1145 -4.19987
C 32.0383 19.1777 4.60243
C 32.8884 18.3346 4.74108
C -1.88235 7.33637 -2.95627
C -0.771504 6.88626 -3.24867
C -24.6035 -23.7889 -19.1296
C -23.4232 -24.1524 -19.0689
C 4.66083 -0.0014234 5.58189
C 4.04009 0.114739 6.80301
C -7.71071 11.0751 -5.361
C -8.24476 11.1202 -6.45323
C 10.9414 0.178147 -6.88161
C 11.2834 0.123483 -7.97092
C 10.5873 0.230539 -5.53156
C 10.1083 0.331038 -4.47478
C -9.647 -16.6654 -7.01208
C -10.3431 -17.2182 -7.8289
H 11.6916 0.117678 -9.03309
C 6.22629 -2.87532 -2.18313
C 6.86981 -2.11744 -2.91463
C 9.56837 0.447351 -3.25077
C 8.9958 0.5273 -2.09207
C -4.14986 8.21426 -2.2654
C -3.03778 7.77959 -2.57247
C 10.855 9.27103 6.7378
C 10.221 8.61395 7.65351
C 32.7276 -29.9907 33.5371
C 33.613 -30.5573 32.9352
C -11.3591 10.4717 -4.65374
C -11.7937 9.77534 -5.57062
C 4.26949 -5.19155 0.0385787
C 3.69732 -5.8895 0.915604
C 4.91144 -4.44848 -0.815826
C 5.65588 -3.73512 -1.47252
C 7.65331 0.342434 0.056057
C 8.30682 0.554592 -1.03909
C -5.49927 -2.77297 4.90914
C -4.43145 -2.57414 5.21296
H -6.44093 -3.178 4.56647
C 35.881 30.079 15.6976
C 36.5651 31.0416 15.9747
C -3.87831 2.81348 4.37474
C -4.72783 2.15139 4.64527
C 1.48572 5.99276 -3.68127
C 0.432496 6.44744 -3.53054
C 2.11252 -4.0785 7.79667
C 2.72867 -3.92564 6.76416
C -5.99588 1.29975 4.76615
C -6.91804 0.620248 4.81678
C 1.35932 -4.21704 8.88748
C 0.709857 -4.22557 9.90604
C 5.94568 -6.52034 32.9655
C 6.17223 -5.94482 31.931
C 3.82745 5.12421 -4.03742
C 2.6756 5.50779 -3.85873
C 0.562251 -1.52037 6.36611
C -0.619653 -1.91478 6.1663
C 1.67819 -1.05241 6.55642
C 2.82855 -0.488133 6.76993
H -3.09905 3.45973 3.98828
C -15.7564 -32.2155 -31.1281
C -15.0086 -33.0676 -30.6923
C -1.84237 -2.03922 5.80752
C -3.04038 -2.34028 5.58659
C -1.16757 -6.54467 -29.6437
C 0.0497863 -6.35436 -29.6517
C 5.83301 -3.28551 2.92057
C 4.97401 -3.32608 3.76553
C 2.57919 -7.5796 2.48809
C 3.18375 -6.7561 1.71326
C 3.43408 -3.67642 5.81509
C 4.13768 -3.47478 4.75493
C 11.4973 9.96397 5.9325
C 12.2608 10.6318 5.15781
C 6.41325 -0.00065897 2.28928
C 7.03395 0.0606212 1.15315
C 7.49315 -3.11076 1.01663
C 6.58324 -3.2375 1.86688
C 12.7075 13.474 29.7329
C 13.8223 13.9193 29.5307
H 35.1948 29.2618 15.4287
C -8.88231 -1.096 4.55817
C -7.98056 -0.256562 4.75745
C 9.28687 -3.05072 -0.696342
C 8.42817 -3.09964 0.173122
C -15.7652 -33.0004 -35.0209
C -14.847 -33.7565 -34.9962
C -35.8206 26.1345 -5.70723
C -36.304 26.051 -6.83055
C 23.878 3.47765 19.3103
C 23.2903 4.52674 19.3677
C 34.7767 -18.9832 18.9027
C 33.4842 -19.0081 19.2279
C 9.85568 16.325 -38.7278
C 10.106 17.0211 -39.6835
C -33.3716 32.2603 16.3103
C -33.1435 31.1905 16.8339
C -19.8596 -28.1889 -5.00444
C -19.239 -29.1739 -4.72311
C -26.3079 27.0915 5.70056
C -25.1382 27.3324 5.75025
H 4.49117 0.686504 7.67703
C 21.0791 18.792 28.7668
C 21.6109 19.5728 29.5147
C -5.80326 3.39102 -1.15905
C -6.60026 2.46035 -1.10187
C -3.66529 -6.69732 -29.57
C -2.46321 -6.62261 -29.6501
C 9.86542 -8.77161 36.3226
C 9.97897 -9.54353 37.2915
C 34.0501 -23.3244 33.5076
C 35.1044 -22.7724 33.3002
C 38.589 5.1653 -1.01451
C 39.2087 4.16795 -0.82285
C -4.10387 5.23572 -0.980609
C -4.92444 4.3524 -1.03522
C 14.7769 10.7252 23.4337
C 14.3113 11.0846 24.4722
C -10.5979 7.28933 -9.55897
C -11.6858 6.99838 -10.0342
C -12.819 -26.7964 -10.964
C -12.5259 -25.5354 -11.0035
H 4.45594 16.6585 -0.132361
C -18.2234 34.7845 8.86347
C -19.4521 34.5877 8.82776
C 16.6688 24.5034 6.83012
C 17.7766 24.2579 6.23725
C 35.5182 26.424 7.31051
C 34.7205 26.7593 6.36722
C -33.9199 21.523 16.8442
C -34.0244 20.5926 17.7208
C -10.9349 36.9785 19.2469
C -12.1654 36.7359 18.982
C 7.05803 -8.87478 0.0804691
C 7.83065 -7.96015 0.00959514
C 23.3173 35.5503 -21.4369
C 22.8296 36.7123 -21.3106
C -30.5843 21.3477 -5.71044
C -31.591 20.8251 -6.19478
C 7.81147 20.7406 12.061
C 8.58543 21.6661 11.6231
207
Atoms. Timestep: 20000
O 0.999269 0.762766 3.37509
O 1.99428 1.531 2.67433
O -0.418458 1.1689 3.43021
O -0.7308 2.3264 2.57125
O -1.25103 0.006 3.38995
O -2.47035 0.00682 2.63587
O -0.399298 -1.12598 3.35505
O -0.728498 -2.31164 2.64792
O 0.989058 -0.711031 3.39732
O 1.93363 -1.41062 2.61082
O 2.48259 0.0951756 -2.53999
O 1.21424 0.17659 -3.24497
O 0.761217 2.46006 -2.53949
O 0.408509 1.28832 -3.23191
O -1.93669 1.56156 -2.53501
O -0.955864 0.860853 -3.29535
O -1.89568 -1.36272 -2.52611
O -0.932858 -0.583955 -3.21382
O 0.759897 -2.22439 -2.52112
O 0.430213 -1.04847 -3.25609
O 2.88653 -0.670626 1.8456
O 2.92413 0.761089 1.85722
O 1.6138 2.6233 1.78284
O 0.25366 3.09186 1.86237
O -2.00347 2.33757 1.88322
O -2.83062 1.18795 1.93155
O -2.66962 -1.07128 1.78375
O -1.86015 -2.23328 1.85577
O 0.24848 -3.0825 1.86287
O 1.61334 -2.59389 1.83371
O 2.85459 1.25447 -1.81621
O 2.00474 2.33268 -1.80145
O -0.218551 3.23915 -1.81274
O -1.5767 2.7607 -1.81004
O -2.87672 0.810066 -1.77453
O -2.83601 -0.647293 -1.77337
O -1.56353 -2.53729 -1.78362
O -0.246059 -3.05209 -1.81856
O 1.99423 -2.30834 -1.81992
O 2.78705 -1.1078 -1.83888
O 3.40448 0.738012 -0.5562
O 3.23287 1.42801 0.635787
O 0.395303 3.52048 -0.550117
O -0.375944 3.51356 0.669113
O -3.10047 1.44988 -0.597809
O -3.34217 0.75607 0.649743
O -2.40064 -2.64361 -0.586556
O -1.65812 -2.91637 0.609722
O 1.77818 -3.06192 -0.633542
O 2.34932 -2.58885 0.622223
O 3.07985 -1.33705 0.632042
O 3.35034 -0.678489 -0.583257
O 2.38434 2.54883 0.579477
O 1.78375 3.08286 -0.638049
O -1.63813 3.01365 0.666313
O -2.32032 2.6385 -0.577567
O -3.34857 -0.681231 0.629898
O -3.14766 -1.42559 -0.587085
O -0.339292 -3.46023 0.605069
O 0.407885 -3.52395 -0.632909
C 2.73531 1.20102 6.60476
C 1.88837 1.13621 7.55853
H -25.3616 -20.5153 -12.7482
C -16.6463 5.83333 36.0916
C -16.0753 6.87982 36.2844
C -12.6962 9.00412 -0.189476
C -12.0258 8.30937 0.608543
C 30.8294 5.72679 5.35511
C 29.99 6.56512 5.19487
C -3.28392 6.53253 -0.704067
C -2.0037 6.47108 -0.618625
C -25.4847 -21.5732 -12.6776
C -25.641 -22.754 -12.6325
C 1.02437 0.941406 8.40919
C 0.0175505 0.645168 9.22695
C -11.3774 7.65083 1.4914
C -10.7266 7.00021 2.2572
C 9.63117 1.27377 -2.41535
C 10.1984 1.2277 -3.39417
C 8.87255 1.37501 -1.18752
C 8.18882 1.4728 -0.228095
C -12.1356 -17.1092 -8.46883
C -11.5769 -17.1078 -7.39639
H 10.7048 1.25459 -4.315
C 4.29298 -4.67423 -4.54756
C 4.59374 -4.44239 -5.75649
C 7.42857 1.51667 0.793871
C 6.75827 1.48364 1.87681
C -5.70198 6.45522 -0.740691
C -4.47837 6.54268 -0.746141
C 8.05246 8.92501 -1.20974
C 7.53785 8.23107 -2.1218
C 36.6417 -28.1216 29.1898
C 35.7381 -27.5764 29.7601
C -16.812 11.3357 -13.0165
C -16.712 11.3498 -11.7931
C 3.08437 -5.51271 -1.11887
C 2.67835 -5.78446 0.038217
C 3.4771 -5.19273 -2.25993
C 3.94403 -4.90937 -3.37343
C 5.20496 1.35844 3.80322
C 6.01223 1.43428 2.84276
C -6.89152 -2.65791 2.43548
C -6.23794 -2.24602 3.29625
H -7.66239 -3.10844 1.67191
C 32.4081 29.3904 6.7718
C 31.9394 30.2962 7.4199
C -1.04278 3.40656 5.77705
C -2.13938 3.22983 5.60923
C 0.497611 6.28914 -0.381076
C -0.778812 6.4268 -0.558846
C 1.48795 -3.48972 6.26961
C 2.55183 -3.47196 5.43594
C -3.50745 2.82756 5.08026
C -4.51325 2.49246 4.67086
C 0.470369 -3.57346 6.97356
C -0.534422 -3.65086 7.73316
C 2.99421 3.66081 29.2994
C 1.87646 3.65384 28.8243
C 2.90921 5.93168 0.0579337
C 1.74013 6.06403 -0.118317
C -2.81234 -0.512905 6.72998
C -3.57706 -0.901373 5.95947
C -1.90804 -0.133708 7.70484
C -1.12065 0.223808 8.46664
H -0.000151891 3.62232 6.01981
C -14.7071 -22.7326 -35.0319
C -13.5272 -22.9607 -34.9575
C -4.55654 -1.36745 5.04532
C -5.31055 -1.77195 4.29164
C -4.62248 -3.55755 -26.066
C -3.43908 -3.42516 -26.3789
C 6.15635 -3.65838 1.97435
C 5.19229 -3.52988 2.81893
C 2.0069 -6.15936 2.40262
C 2.31876 -6.04264 1.22108
C 3.4144 -3.51144 4.66447
C 4.31738 -3.51361 3.72806
C 8.8512 9.42371 -0.217909
C 9.52224 9.74119 0.734801
C 3.52666 1.19737 5.60322
C 4.3162 1.26629 4.74475
C 7.92831 -3.68127 0.228887
C 7.03699 -3.73641 1.12396
C 14.3825 17.1399 23.5606
C 13.5928 16.3146 23.9421
H 32.8445 28.5284 6.18575
C -6.81414 1.48235 4.13442
C -5.77412 2.03075 4.36184
C 9.73358 -3.74983 -1.50928
C 8.91122 -3.6095 -0.621988
C -15.0117 -29.5097 -35.3812
C -14.8617 -28.2993 -35.3945
C -27.6322 31.1088 2.33328
C -28.0966 31.8104 3.17
C 23.9544 3.61269 22.0714
C 22.9252 4.18901 22.2059
C 36.8141 -19.2652 22.0213
C 36.7007 -19.2912 20.702
C 8.29866 10.9856 39.7636
C 8.59181 11.2739 -39.1035
C 35.4711 -37.5691 7.72089
C 35.6061 -36.6912 6.88119
C -16.1363 -21.9461 -13.569
C -15.6623 -22.8851 -14.2063
C -24.3998 28.1722 5.70251
C -23.7009 27.999 4.73336
H 0.0447234 0.81358 10.3508
C 29.2372 7.358 30.9179
C 29.1223 7.93442 31.9817
C -1.70484 0.894941 -7.00581
C -0.749739 0.656542 -7.77484
C -7.04304 -3.74815 -25.4665
C -5.86589 -3.65135 -25.7376
C 9.42783 -4.26699 -32.3534
C 8.84477 -4.02703 -31.2916
C 36.6739 -26.4507 -39.7666
C 37.4203 -27.422 -39.852
C -36.5519 1.08224 5.62512
C -37.5829 1.71845 5.76585
C -3.77033 1.11779 -5.5469
C -2.77813 1.03932 -6.2485
C 21.1669 16.7141 26.3496
C 21.264 15.864 25.5082
C -14.1312 8.0874 -11.966
C -14.6673 8.35676 -12.9965
C -10.4358 -20.8926 -18.5478
C -9.62693 -21.5127 -19.2229
H -21.2147 -38.065 -7.32715
C -22.1298 33.3266 5.63347
C -22.7701 32.3068 6.00455
C 7.08705 20.684 12.3762
C 7.9005 20.8768 13.2921
C 28.0262 26.0215 5.03788
C 29.2375 26.4586 5.03592
C -22.3682 24.2843 12.0051
C -22.9438 23.3254 12.6214
C -11.6037 36.1375 8.09445
C -12.6597 35.7866 7.53839
C -2.98357 -13.3685 -5.77226
C -2.15697 -12.7688 -6.45183
C 27.4319 33.0493 -15.0912
C 27.714 32.8164 -16.2422
C -26.2354 16.4941 -0.0292536
C -25.6811 15.5058 -0.499054
C 6.70512 16.9265 6.918
C 5.734 16.2653 7.29983
207
Atoms. Timestep: 40000
O 0.935712 0.693451 3.34837
O 1.90456 1.44697 2.67906
O -0.419357 1.1685 3.35314
O -0.762133 2.36981 2.58274
O -1.25103 0.006 3.38995
O -2.47035 0.00682 2.63587
O -0.390899 -1.18797 3.37456
O -0.772634 -2.33517 2.55806
O 0.968125 -0.731544 3.38537
O 1.94967 -1.40483 2.55631
O 2.51283 0.226579 -2.44031
O 1.30518 0.209198 -3.20184
O 0.801485 2.49334 -2.48245
O 0.466486 1.36308 -3.26704
O -1.95755 1.54213 -2.54008
O -0.911897 0.886611 -3.20345
O -1.84495 -1.31181 -2.53164
O -0.885699 -0.559908 -3.25665
O 0.827543 -2.12561 -2.56856
O 0.483168 -0.941175 -3.2802
O 2.92156 -0.653911 1.82605
O 2.87163 0.757845 1.87525
O 1.55275 2.60961 1.855
O 0.25366 3.09186 1.86237
O -2.01906 2.35764 1.8702
O -2.80462 1.18947 1.84401
O -2.81857 -1.12223 1.81767
O -1.90886 -2.22228 1.7031
O 0.24848 -3.0825 1.86287
O 1.57237 -2.5676 1.78675
O 2.75167 1.34033 -1.66055
O 2.01641 2.55698 -1.76183
O -0.223377 3.20759 -1.75051
O -1.54184 2.66241 -1.77549
O -2.88682 0.790006 -1.80446
O -2.88856 -0.63313 -1.83341
O -1.51311 -2.49144 -1.90655
O -0.155068 -2.8639 -1.85056
O 2.03016 -2.12782 -1.83648
O 2.95112 -0.992533 -1.78586
O 3.46051 0.945826 -0.521297
O 3.16852 1.58295 0.723112
O 0.380738 3.6585 -0.570107
O -0.382418 3.47292 0.626915
O -3.11716 1.45169 -0.57651
O -3.39451 0.72091 0.61343
O -2.25455 -2.52277 -0.645665
O -1.64446 -2.96188 0.553189
O 1.79071 -2.82391 -0.613801
O 2.41941 -2.46796 0.61266
O 3.24801 -1.31969 0.648085
O 3.37689 -0.532162 -0.496766
O 2.27349 2.69447 0.702455
O 1.74401 3.27259 -0.524973
O -1.75253 2.99026 0.672835
O -2.37754 2.70029 -0.566128
O -3.46819 -0.73094 0.601218
O -3.16477 -1.3838 -0.642136
O -0.327898 -3.43601 0.614333
O 0.417484 -3.30748 -0.587928
C -0.258174 -1.17693 6.87828
C -1.48406 -1.188 7.1703
H -24.7466 -19.7467 -6.55759
C -8.46935 4.29429 29.4625
C -7.9581 5.37983 29.3687
C -13.3579 4.26497 6.45897
C -13.9013 4.24715 7.54782
C 27.9319 -6.12221 5.75806
C 28.7542 -6.96638 6.00607
C -5.68291 3.66592 2.11872
C -4.56824 4.19198 2.39914
C -25.8495 -19.664 -6.58959
C -27.0493 -19.5009 -6.662
C -2.67946 -1.27966 7.41019
C -4.04662 -1.39485 7.50071
C -14.3977 4.34986 8.72596
C -14.9009 4.31987 9.81416
C 10.6882 0.0440097 3.93182
C 11.8113 0.180182 3.80363
C 9.27857 -0.197599 4.13565
C 8.17915 -0.298281 4.44479
C -13.5924 -17.2695 -7.27576
C -14.4357 -16.9232 -8.06886
H 12.8973 0.263439 3.67932
C 3.1906 -5.59562 -1.67362
C 3.30693 -5.02212 -2.71631
C 6.87676 -0.380564 4.75942
C 5.75994 -0.492249 5.0856
C -7.95449 2.76342 1.58181
C -6.84335 3.19855 1.84232
C 4.24036 8.27458 -8.27386
C 4.21931 9.15304 -9.0586
C 38.817 -24.9228 26.1056
C 39.7444 -25.443 25.5369
C -22.6142 11.0806 -21.0116
C -21.7578 10.9774 -20.175
C 2.62754 -7.11488 1.72378
C 2.36805 -7.65722 2.84619
C 2.85523 -6.6308 0.5597
C 3.06196 -6.19405 -0.514959
C 3.28211 -0.733865 5.79918
C 4.47087 -0.57841 5.39776
C -7.25518 0.133105 -2.01013
C -7.09223 0.0878301 -0.892144
H -7.3229 0.101337 -3.04674
C 30.1674 32.505 1.00404
C 29.929 31.33 1.13288
C 3.52825 3.25831 5.99855
C 2.45048 3.09139 6.29316
C -2.30051 5.36104 2.76811
C -3.43605 4.81498 2.66974
C 1.90251 -4.58201 4.94867
C 2.9065 -4.10211 4.34344
C 1.04219 2.85676 6.59643
C -0.104395 2.74627 6.73544
C 0.897384 -5.07098 5.54107
C -0.144431 -5.48018 6.08202
C -0.897083 13.9016 25.2154
C -1.52221 13.3164 26.0956
C 0.0551573 6.43511 2.9031
C -1.08746 5.90842 2.82394
C -5.96141 -0.623395 4.03118
C -6.35069 -0.415889 2.96519
C -5.43965 -0.875686 5.25307
C -4.69907 -1.14408 6.2613
H 4.57693 3.4278 5.80742
C -14.0422 -18.344 -39.6933
C -13.0223 -17.8951 -39.1887
C -6.64861 -0.217394 1.62994
C -6.90087 -0.134271 0.511776
C -8.16166 -0.55192 -22.531
C -7.04097 -0.485233 -23.0626
C 6.60586 -1.82297 1.79312
C 5.7057 -2.4277 2.5034
C 1.94233 -8.41606 5.22118
C 2.16067 -8.13434 4.00796
C 3.91491 -3.60947 3.72424
C 4.77819 -3.03894 3.10027
C 4.34553 7.40932 -7.30508
C 4.2654 6.60465 -6.37169
C 0.936668 -1.13982 6.58007
C 2.16337 -0.989004 6.20738
C 8.13111 -0.379524 0.346603
C 7.41481 -1.09702 1.05777
C 14.4869 20.2388 18.7459
C 14.5269 19.8184 17.6056
H 30.443 33.5627 0.83127
C -2.63787 2.86569 6.51092
C -1.44513 2.78384 6.71952
C 9.56114 0.931531 -1.1705
C 8.90239 0.239259 -0.426669
C -13.2916 -19.0959 -35.388
C -14.4612 -19.4485 -35.4797
C -30.765 34.959 8.20664
C -30.8433 35.8301 9.04836
C 23.8916 3.86504 24.8673
C 22.6975 3.73268 25.045
C 38.8069 -19.6192 23.5578
C -40.0061 -19.5811 23.8243
C 7.18806 6.06316 -40.0002
C 6.61167 5.03935 39.7257
C 24.4852 -25.6339 -2.52476
C 24.042 -26.196 -1.53301
C -11.7158 -15.9568 -22.7637
C -11.7255 -16.149 -23.9815
C -24.1131 28.7989 4.40611
C -24.4631 28.4301 3.28981
H -4.61173 -1.32006 8.45347
C 37.4128 -4.0519 33.276
C 36.7152 -3.87457 34.2708
C 1.85047 -4.16102 -5.58346
C 0.880804 -4.76448 -5.9974
C -10.3182 -0.766507 -21.2391
C -9.26105 -0.666653 -21.8556
C 8.67021 0.383955 -20.364
C 8.01722 1.4092 -20.3996
C 39.8875 -30.5944 -33.2663
C 39.0751 -31.4801 -32.992
C -33.5654 -1.91621 12.5955
C -32.4507 -1.85713 12.1078
C 3.76884 -2.82277 -4.80265
C 2.81427 -3.47625 -5.18674
C 28.3578 20.8865 27.5026
C 27.9171 22.0251 27.648
C -18.6081 9.94094 -17.352
C -18.5663 10.4994 -16.297
C -7.56587 -15.7387 -26.5916
C -8.1959 -16.7835 -26.269
H 24.4525 -13.1242 -1.04136
C -13.3444 32.2213 6.78761
C -12.5258 33.174 6.92865
C -2.5539 16.378 18.2321
C -3.09207 16.6745 19.2429
C 20.678 22.6675 0.076763
C 19.6325 23.0291 0.502204
C -10.7948 27.0307 7.16252
C -11.787 26.2223 7.38997
C -12.4123 35.2954 -3.06395
C -13.0484 34.8123 -4.01829
C -12.5491 -17.1822 -12.9221
C -11.4916 -16.6429 -13.036
C 31.9852 30.1591 -10.3083
C 32.2168 29.2692 -9.53854
C -21.3462 10.7282 5.26973
C -20.2524 11.0426 5.65143
C 4.18081 12.2663 2.94284
C 5.23261 12.8127 2.57952
207
Atoms. Timestep: 60000
O 0.922693 0.68141 3.3199
O 1.91106 1.41266 2.59848
O -0.444918 1.18588 3.32347
O -0.72208 2.35314 2.53367
O -1.25103 0.006 3.38995
O -2.47035 0.00682 2.63587
O -0.396014 -1.14123 3.31522
O -0.744606 -2.30806 2.57491
O 0.906577 -0.741747 3.3801
O 1.86082 -1.32583 2.53763
O 2.41945 0.0855695 -2.60414
O 1.20048 0.191708 -3.39097
O 0.709624 2.41566 -2.57709
O 0.348385 1.36167 -3.36698
O -2.06453 1.61585 -2.54203
O -1.03585 0.916828 -3.32819
O -1.99137 -1.17238 -2.48424
O -1.06233 -0.451932 -3.33656
O 0.663426 -2.11117 -2.69642
O 0.321261 -0.899096 -3.37706
O 2.84672 -0.660849 1.7139
O 2.87092 0.741468 1.79845
O 1.552 2.58687 1.82741
O 0.25366 3.09186 1.86237
O -1.97563 2.3741 1.82096
O -2.75865 1.16734 1.81672
O -2.86619 -1.10474 1.80502
O -1.92925 -2.16161 1.74707
O 0.24848 -3.0825 1.86287
O 1.59524 -2.52886 1.80751
O 2.80113 1.25294 -1.84019
O 1.93414 2.39819 -1.91322
O -0.195117 3.2403 -1.82474
O -1.54532 2.69691 -1.74847
O -3.01043 0.882746 -1.76115
O -3.01831 -0.548784 -1.76411
O -1.64021 -2.39898 -1.86732
O -0.293025 -2.83234 -1.9206
O 1.88187 -2.22495 -1.93015
O 2.73206 -1.13045 -1.93663
O 3.34705 0.759398 -0.598148
O 3.12213 1.49734 0.602055
O 0.34737 3.46368 -0.514641
O -0.364857 3.58719 0.671604
O -3.20759 1.58323 -0.563598
O -3.5273 0.824361 0.639967
O -2.37068 -2.47034 -0.635563
O -1.77535 -2.88095 0.583219
O 1.64146 -2.91802 -0.678137
O 2.23161 -2.47212 0.542796
O 3.11997 -1.36081 0.540376
O 3.26571 -0.654057 -0.670296
O 2.31139 2.69414 0.608001
O 1.69844 3.036 -0.649191
O -1.75574 3.2142 0.673389
O -2.28178 2.66709 -0.53117
O -3.46917 -0.60538 0.600047
O -3.30508 -1.36021 -0.615274
O -0.434554 -3.3466 0.582006
O 0.234491 -3.29653 -0.672883
C -2.39567 -0.101255 6.04734
C -3.53908 -0.404626 5.66775
H -27.5096 -18.2096 -0.88056
C -0.332201 2.80759 22.911
C 0.0671353 3.85207 22.4851
C -15.0366 -0.390891 15.0874
C -16.0063 0.342268 14.9752
C 26.711 -19.5614 6.61219
C 25.8751 -18.7023 6.35625
C -5.26176 1.67507 6.8806
C -5.2353 2.22018 5.74155
C -27.06 -17.2003 -0.892181
C -26.5726 -16.1168 -0.894642
C -4.62311 -0.856239 5.32958
C -5.87491 -1.40369 4.94473
C -17.0058 1.14222 15.0267
C -17.9402 1.88715 14.9576
C 7.94213 4.52043 7.84739
C 8.9159 5.10336 7.91921
C 6.63484 3.87868 7.68876
C 5.64222 3.31203 7.56438
C -18.863 -17.4949 -5.39142
C -17.8922 -16.8133 -5.20803
H 9.89766 5.5737 8.01645
C -4.48809 -5.58163 -2.65544
C -5.31977 -5.34361 -3.51132
C 4.43873 2.67686 7.24318
C 3.45005 2.14185 7.05326
C -5.45017 0.438909 9.09986
C -5.32098 1.04499 8.01316
C 0.269024 6.88035 -14.2177
C 0.738783 7.88064 -13.775
C -37.0219 -22.4518 23.0289
C -37.902 -22.7887 22.2877
C -26.4676 9.4297 -26.2428
C -26.0072 10.3505 -25.6179
C -1.73097 -6.18571 -0.151464
C -0.866376 -6.48853 0.648997
C -2.70635 -5.92292 -0.941869
C -3.58724 -5.67606 -1.79462
C 1.16583 1.00097 6.76772
C 2.23055 1.55715 6.89242
C -5.49192 2.23529 -4.44843
C -5.67059 1.80734 -3.42875
H -5.27313 2.63762 -5.4331
C 27.5267 33.9006 -4.56801
C 28.3402 34.3605 -5.36035
C 4.68056 3.89132 3.23373
C 3.77145 4.1066 3.84711
C -5.16856 3.38981 3.4391
C -5.19444 2.83619 4.58534
C -0.158088 -3.46741 6.07356
C 0.93018 -2.82317 6.16722
C 2.46406 4.43451 4.46941
C 1.49929 4.63259 5.04697
C -1.2232 -4.13766 5.90249
C -2.23665 -4.80135 5.74538
C -6.45138 23.0497 20.4591
C -5.65491 22.8364 21.3354
C -4.8861 4.56566 1.1258
C -5.06607 3.97045 2.26575
C -6.32381 -0.0151967 1.36639
C -6.20024 0.337706 0.268705
C -6.34093 -0.466205 2.64027
C -6.17527 -0.896883 3.71748
H 5.66531 3.61209 2.78538
C -12.9958 -14.7288 39.7042
C -13.3053 -13.6345 -39.9249
C -6.07626 0.706098 -1.08458
C -5.96686 1.0963 -2.15685
C -11.6064 2.34591 -18.8772
C -10.7447 2.49093 -19.7261
C 5.52449 -0.812213 6.28098
C 4.37621 -1.33453 6.04337
C 1.04012 -7.10424 2.0546
C 0.0810181 -6.77873 1.40727
C 2.05843 -2.22092 6.20078
C 3.20439 -1.83362 6.06002
C -0.307308 5.7981 -14.7229
C -0.978509 4.89662 -15.2954
C -1.15367 0.14804 6.31339
C 0.0249272 0.53382 6.61723
C 7.73933 0.174514 6.80352
C 6.5785 -0.302456 6.50964
C 14.6285 22.8673 12.7801
C 15.4172 23.7391 12.5108
H 26.7782 33.4998 -3.88495
C -0.998523 4.4299 5.70269
C 0.192136 4.66015 5.467
C 10.0264 0.968221 7.34346
C 8.94097 0.576009 7.00767
C -12.6506 -8.37308 -39.26
C -12.5999 -9.5608 -39.1761
C -36.333 38.3087 13.2975
C -36.3975 39.4576 13.6079
C 23.6203 4.07834 27.672
C 22.6805 3.31706 27.8296
C -38.0066 -19.8516 24.9679
C -38.3328 -19.8234 26.1129
C 5.19743 -0.398017 39.809
C 5.53655 0.433811 38.9894
C 12.7185 -14.8319 -10.7921
C 13.441 -14.7492 -11.7745
C -8.79303 -10.7567 -32.8541
C -8.79233 -9.84821 -32.0749
C -24.277 29.2399 2.83451
C -25.2796 29.1844 2.13673
H -6.52293 -2.01134 5.59502
C -34.5973 -15.3201 35.8168
C -35.6338 -15.6375 36.3396
C 3.92216 1.96423 -5.16534
C 4.54695 2.59434 -4.30015
C -13.5423 2.25157 -17.2484
C -12.5879 2.2568 -17.9968
C 7.48695 5.58932 -8.52924
C 7.41708 6.28316 -9.50314
C -37.6307 -35.4669 -26.581
C -38.5776 -34.7432 -26.4252
C -28.5672 -4.83589 18.6427
C -29.396 -5.45829 19.2652
C 2.49355 0.50232 -6.6748
C 3.20451 1.21224 -6.01575
C 34.7162 26.995 28.8613
C 35.289 26.1667 29.555
C -24.2266 13.0052 -24.5087
C -23.9134 13.0543 -23.327
C -4.47685 -11.4269 -34.2115
C -4.58705 -10.1699 -34.2531
H 2.49671 4.99595 8.4472
C -0.147732 31.3256 9.70054
C 0.224731 30.9541 8.58985
C -11.2384 12.8613 26.1716
C -12.4184 12.8237 25.7699
C 11.4959 19.9893 -4.06896
C 12.1266 19.0849 -4.7196
C -0.0219463 31.2461 2.03005
C -1.24751 31.1901 1.98728
C -13.2701 34.4017 -14.206
C -13.4165 33.8811 -15.3644
C -18.6357 -20.4861 -21.6653
C -19.7064 -20.8256 -22.1455
C 36.8286 26.0405 -4.4984
C 36.3487 27.0093 -3.94718
C -15.4934 5.01811 11.0751
C -15.8014 6.06602 11.6246
C 3.53884 8.0988 -1.68732
C 2.34751 7.79141 -1.33807
207
Atoms. Timestep: 80000
O 0.954072 0.728317 3.28312
O 1.92528 1.57033 2.64378
O -0.36798 1.15994 3.41194
O -0.653305 2.32739 2.6533
O -1.25103 0.006 3.38995
O -2.47035 0.00682 2.63587
O -0.356199 -1.12414 3.35985
O -0.712207 -2.32195 2.67057
O 0.986521 -0.678343 3.34323
O 1.97176 -1.37426 2.57792
O 2.49451 0.157982 -2.54008
O 1.2368 0.206823 -3.28106
O 0.753156 2.52457 -2.47881
O 0.398196 1.3324 -3.19728
O -2.04188 1.54596 -2.57281
O -0.992102 0.866869 -3.22281
O -1.88281 -1.32877 -2.46965
O -0.914822 -0.577675 -3.25549
O 0.749177 -2.10415 -2.50303
O 0.426142 -0.94642 -3.19857
O 2.86493 -0.568323 1.81254
O 2.92079 0.87629 1.89327
O 1.57113 2.70125 1.83369
O 0.25366 3.09186 1.86237
O -1.87813 2.30912 1.88938
O -2.75024 1.21072 1.86482
O -2.81551 -1.19408 1.92475
O -1.88948 -2.28097 1.93963
O 0.24848 -3.0825 1.86287
O 1.57858 -2.53632 1.84428
O 2.8263 1.33791 -1.78262
O 1.94383 2.51084 -1.74405
O -0.267902 3.1656 -1.64357
O -1.62798 2.68438 -1.76052
O -2.95023 0.842855 -1.74413
O -2.78712 -0.600212 -1.73294
O -1.49669 -2.50805 -1.72656
O -0.180232 -2.98195 -1.80891
O 1.95235 -2.11826 -1.73809
O 2.85411 -0.987923 -1.7325
O 3.47214 0.839131 -0.578342
O 3.10854 1.54542 0.613038
O 0.363558 3.73607 -0.48463
O -0.375904 3.52408 0.702123
O -3.12451 1.4532 -0.568566
O -3.33781 0.77003 0.643612
O -2.2493 -2.54767 -0.491118
O -1.70703 -3.03966 0.749031
O 1.74741 -2.8729 -0.559305
O 2.378 -2.43974 0.658256
O 3.23705 -1.28922 0.637557
O 3.48654 -0.592705 -0.571386
O 2.26675 2.72047 0.643706
O 1.72177 3.24653 -0.547647
O -1.72373 3.00852 0.656058
O -2.41 2.63332 -0.564664
O -3.27342 -0.643032 0.666825
O -3.06066 -1.36166 -0.518638
O -0.392633 -3.49549 0.623056
O 0.394743 -3.46905 -0.569498
C -2.39642 -1.31096 6.17695
C -2.76747 -2.35973 5.64864
H -28.2649 -12.6251 4.70696
C 7.66446 1.44219 16.557
C 7.84141 2.27255 15.714
C -16.847 -1.15936 21.4849
C -17.0997 -1.06158 20.3187
C 23.8459 -30.9974 7.08115
C 24.7382 -31.841 7.06288
C -4.44833 3.10495 3.60586
C -5.01904 2.93693 2.58611
C -27.5976 -13.4842 4.65759
C -26.9108 -14.4679 4.73999
C -3.45056 -3.3041 5.01638
C -4.14073 -4.28298 4.36882
C -17.4916 -0.881314 19.1027
C -17.7601 -0.81556 17.9319
C 3.02832 8.19529 9.03459
C 3.52171 9.17716 9.30815
C 2.46043 6.92129 8.71903
C 1.92479 5.93662 8.46571
C -22.3674 -16.6968 -3.18151
C -22.896 -17.7268 -2.83324
H 4.08462 10.1226 9.42182
C -4.88729 -2.79944 -4.49847
C -5.52385 -1.98566 -5.1533
C 1.15229 4.90795 8.05839
C 0.621816 3.98213 7.57135
C -3.1017 3.54746 5.7166
C -3.73221 3.31264 4.69502
C -4.02232 4.65534 -20.4032
C -3.97698 4.44297 -19.2053
C -34.3834 -18.6555 21.4869
C -34.3869 -19.8822 21.4364
C -29.5458 9.97071 -29.6536
C -29.4916 11.1263 -30.0743
C -2.89437 -5.39052 -2.59371
C -1.99231 -6.23788 -2.23394
C -3.58878 -4.44079 -3.04438
C -4.16362 -3.60136 -3.73854
C -0.755633 1.90387 7.09939
C 0.0273098 2.93556 7.2589
C -9.45987 -0.53251 -3.50799
C -8.7711 -0.957754 -2.72313
H -10.1682 -0.0979709 -4.21973
C 26.0986 35.933 -11.1089
C 25.345 36.4747 -10.3281
C 4.24481 2.26543 7.89875
C 4.62284 2.30793 6.83755
C -6.45347 2.55373 0.549107
C -5.75064 2.72651 1.45115
C -1.29111 -6.64736 2.32714
C -0.815302 -5.89664 3.25026
C 4.95264 2.2395 5.3625
C 5.34547 2.10909 4.31264
C -1.59004 -7.46454 1.28321
C -1.83882 -8.15793 0.353525
C -11.9269 31.4837 16.0281
C -10.9061 31.805 15.4297
C -8.03326 2.07831 -1.40702
C -7.25754 2.31514 -0.499518
C -6.12345 -2.79967 1.28965
C -6.65027 -2.4758 0.317992
C -5.42204 -3.25289 2.40365
C -4.86749 -3.74477 3.29456
H 3.80883 2.09201 8.88011
C -11.3614 -5.17824 -38.5487
C -12.1757 -5.40246 -39.4364
C -7.37421 -1.91516 -0.732629
C -7.96381 -1.5077 -1.61563
C -14.9971 5.24657 -15.2999
C -14.1292 5.35613 -16.1563
C 0.936719 -2.99082 6.93703
C 0.482016 -3.7354 6.03194
C -0.0859936 -7.76479 -1.73434
C -1.04868 -7.04497 -2.01967
C -0.29336 -5.29555 4.12866
C 0.093969 -4.5455 5.12821
C -4.29327 4.91371 -21.669
C -4.46412 5.24721 -22.9194
C -1.90025 -0.233264 6.69405
C -1.37522 0.83657 6.93884
C 1.43746 -1.42306 8.81939
C 1.31191 -2.20265 7.84141
C 15.4697 26.254 6.73073
C 15.5328 26.7915 7.79737
H 26.8102 35.4304 -11.7712
C 5.99301 2.02502 1.75278
C 5.75889 2.0997 2.95165
C 1.907 0.204734 10.6883
C 1.62047 -0.624262 9.75835
C -11.6088 -4.44327 35.7693
C -11.028 -3.38539 35.7064
C 38.2247 -38.2897 18.2967
C 38.1879 -37.1334 18.0291
C 23.3024 4.14257 30.4214
C 22.7171 3.05533 30.5362
C -35.1459 -20.8215 25.222
C -36.2438 -21.0167 25.6875
C 3.64363 -5.40307 38.3452
C 3.70842 -5.41299 39.5555
C 2.59035 -4.24279 -20.6244
C 1.73509 -3.62016 -20.0096
C -6.511 -5.6584 38.519
C -7.51553 -6.0545 37.9221
C -24.7051 29.7638 1.3842
C -25.8086 29.8273 0.927366
H -4.41438 -5.27101 4.7438
C -27.0138 -26.3495 38.4651
C -27.9495 -27.0897 38.191
C 3.94966 4.13567 -5.40063
C 4.56319 3.42786 -6.18912
C -16.7789 5.12078 -13.5204
C -15.949 5.15541 -14.3861
C 5.18038 10.3514 4.18419
C 5.24961 10.489 2.98742
C -36.096 -39.5553 -19.908
C -35.3984 -38.5961 -20.162
C -25.3949 -8.70924 25.7115
C -24.7073 -7.95024 25.0861
C 2.79977 5.6901 -3.72464
C 3.40383 4.98366 -4.55599
C -38.1472 31.6629 31.3812
C -38.4448 31.5043 30.2229
C -30.3066 13.8616 -32.6693
C -29.8843 14.1428 -31.5669
C -0.725485 -4.84509 38.1781
C -1.44321 -3.78433 38.1559
H 5.53045 -2.15518 3.19785
C 12.8926 30.3003 11.6709
C 12.5028 29.5111 10.8534
C -20.3738 9.78864 34.0007
C -19.5935 9.52446 33.1093
C 3.86186 15.812 -9.29006
C 3.47066 16.7979 -8.64258
C 10.1371 34.9729 -2.70638
C 9.45753 35.8084 -3.36289
C -13.9232 33.497 -25.201
C -13.9601 33.0045 -26.3212
C -26.3813 -24.2129 -31.1443
C -25.9352 -24.4034 -30.0429
C -39.0582 23.2356 1.92993
C -39.0115 23.5946 0.7604
C -13.7829 -3.35643 21.6093
C -13.3484 -2.97024 20.5374
C -3.24247 6.06559 0.919542
C -2.53654 6.9952 0.704718
207
Atoms. Timestep: 100000
O 0.95986 0.715233 3.3523
O 1.91182 1.42642 2.58847
O -0.398414 1.14932 3.34251
O -0.771471 2.33136 2.583
O -1.25103 0.006 3.38995
O -2.47035 0.00682 2.63587
O -0.41048 -1.14879 3.28918
O -0.789513 -2.34228 2.56798
O 0.970559 -0.721901 3.34084
O 1.94378 -1.48306 2.61869
O 2.55455 0.00949758 -2.51461
O 1.32652 -0.0145367 -3.27226
O 0.845175 2.31042 -2.54432
O 0.462363 1.16974 -3.30249
O -1.84617 1.43088 -2.56075
O -0.88784 0.718605 -3.33508
O -1.7883 -1.39123 -2.4186
O -0.845843 -0.691616 -3.25277
O 0.867786 -2.32055 -2.51156
O 0.490693 -1.12059 -3.24028
O 2.93239 -0.730064 1.88869
O 2.97623 0.707979 1.88303
O 1.57477 2.55498 1.84429
O 0.25366 3.09186 1.86237
O -1.94552 2.25783 1.77354
O -2.80621 1.15719 1.85302
O -2.81793 -1.18383 1.86743
O -1.98412 -2.29932 1.77909
O 0.24848 -3.0825 1.86287
O 1.61402 -2.57796 1.83526
O 2.95585 1.16043 -1.81415
O 2.0439 2.23318 -1.7594
O -0.167813 3.09645 -1.87645
O -1.52661 2.62578 -1.824
O -2.8271 0.713759 -1.83264
O -2.76412 -0.674039 -1.71361
O -1.58615 -2.66827 -1.76482
O -0.128457 -2.98789 -1.74818
O 2.07518 -2.32394 -1.75749
O 2.9288 -1.17658 -1.7922
O 3.47079 0.686965 -0.608588
O 3.14404 1.36329 0.620255
O 0.440334 3.40354 -0.61092
O -0.324856 3.42084 0.620737
O -3.09029 1.41144 -0.605236
O -3.34628 0.688426 0.611487
O -2.38845 -2.64414 -0.570854
O -1.70468 -3.03542 0.624352
O 1.80646 -2.96517 -0.54165