81
Atoms. Timestep: 0
O 0.955348 0.681731 3.26005
O 1.97712 1.46462 2.62181
O -0.36867 1.15304 3.3373
O -0.758333 2.3424 2.60362
O -1.25103 0.006 3.38995
O -2.47035 0.00682 2.63587
O -0.407794 -1.15799 3.33278
O -0.757872 -2.37618 2.58112
O 0.966115 -0.747967 3.30712
O 1.96038 -1.41981 2.56539
O 2.58841 0.0542214 -2.52508
O 1.42609 0.0558848 -3.27255
O 0.883943 2.37754 -2.50307
O 0.530658 1.22615 -3.23133
O -1.83219 1.46223 -2.5007
O -0.841688 0.768093 -3.21224
O -1.85422 -1.2913 -2.49107
O -0.751853 -0.627636 -3.14123
O 0.914141 -2.25109 -2.44534
O 0.587164 -1.1291 -3.24951
O 2.89732 -0.65127 1.78103
O 2.9876 0.770744 1.85764
O 1.59174 2.65835 1.87379
O 0.25366 3.09186 1.86237
O -1.96906 2.36203 1.84591
O -2.79847 1.14207 1.87871
O -2.77171 -1.17364 1.87888
O -1.95606 -2.34932 1.87131
O 0.24848 -3.0825 1.86287
O 1.60514 -2.62312 1.88981
O 2.90808 1.21976 -1.76714
O 2.08681 2.40072 -1.79211
O -0.155008 3.09121 -1.78197
O -1.54382 2.67715 -1.73858
O -2.84107 0.755572 -1.73176
O -2.90153 -0.620054 -1.77532
O -1.50303 -2.48366 -1.74787
O -0.128557 -2.92812 -1.69439
O 2.15299 -2.29835 -1.74732
O 2.96031 -1.11601 -1.80742
O 3.53563 0.73258 -0.599447
O 3.28672 1.46715 0.612494
O 0.45023 3.50754 -0.51927
O -0.377716 3.46142 0.637885
O -3.0759 1.44875 -0.514835
O -3.41135 0.719745 0.669569
O -2.27503 -2.50233 -0.593786
O -1.70501 -3.0463 0.676036
O 1.77406 -2.97739 -0.510094
O 2.351 -2.50838 0.691284
O 3.18122 -1.40381 0.610351
O 3.54 -0.702885 -0.578353
O 2.35088 2.60361 0.614049
O 1.81539 3.10375 -0.589218
O -1.73044 3.10947 0.665377
O -2.25764 2.63914 -0.522045
O -3.437 -0.719731 0.677601
O -3.10247 -1.30112 -0.579149
O -0.361284 -3.4693 0.622888
O 0.418177 -3.44673 -0.555973
C -12.8086 -26.7517 -10.9654
C -12.5363 -25.5802 -11.0022
H 3.68036 15.7893 10.275
C -28.2582 35.9105 -24.8323
C -29.4564 35.8661 -24.9419
C 28.3167 17.3042 1.06999
C 28.0619 18.462 0.862865
C -29.9124 8.79498 11.7693
C -30.014 7.85667 12.5192
C -6.18116 13.8425 -8.62123
C -5.4028 14.5827 -9.17074
C 37.109 -24.8302 -35.654
C 37.2665 -25.753 -36.4212
C -22.7198 25.1688 -19.046
C -23.5437 25.3602 -19.8969
C -22.6722 8.15968 -8.94161
C -23.8218 8.20384 -9.27638
C -28.0441 -3.75046 4.7398
C -29.2372 -3.65541 4.8156
C -19.6965 36.8323 32.6413
C -19.7303 36.2841 33.7384
81
Atoms. Timestep: 20000
O 0.980064 0.708232 3.38978
O 1.98952 1.47613 2.69654
O -0.378276 1.19447 3.37089
O -0.769456 2.3344 2.59039
O -1.25103 0.006 3.38995
O -2.47035 0.00682 2.63587
O -0.434374 -1.18021 3.4164
O -0.768439 -2.34971 2.625
O 0.914531 -0.701259 3.45606
O 1.81912 -1.43369 2.64169
O 2.38984 0.0342928 -2.45976
O 1.28382 0.0625673 -3.33901
O 0.712482 2.37258 -2.58772
O 0.457286 1.25956 -3.44336
O -1.892 1.44916 -2.58542
O -0.894176 0.770167 -3.33001
O -1.84675 -1.40456 -2.53635
O -0.935672 -0.646395 -3.33527
O 0.834852 -2.20234 -2.50406
O 0.442306 -1.09864 -3.28817
O 2.87637 -0.743136 1.93294
O 2.97012 0.67455 1.98071
O 1.56657 2.54775 1.87021
O 0.25366 3.09186 1.86237
O -2.01824 2.35005 1.82144
O -2.83333 1.14237 1.77987
O -2.79449 -1.13853 1.82889
O -1.94768 -2.32282 1.80185
O 0.24848 -3.0825 1.86287
O 1.51278 -2.52722 1.78456
O 2.7153 1.18557 -1.65988
O 1.86601 2.30059 -1.75938
O -0.270487 3.14942 -1.88297
O -1.54438 2.61773 -1.84406
O -2.90571 0.738682 -1.84834
O -2.83793 -0.695358 -1.77605
O -1.57859 -2.56183 -1.8589
O -0.156076 -2.89214 -1.78853
O 2.08155 -2.28678 -1.77777
O 2.84205 -1.07603 -1.77757
O 3.38349 0.728485 -0.47326
O 3.21162 1.37794 0.720726
O 0.366078 3.53863 -0.633828
O -0.407695 3.46621 0.654938
O -3.1985 1.47731 -0.638557
O -3.36198 0.694195 0.569929
O -2.32692 -2.61784 -0.650392
O -1.73081 -3.02665 0.557896
O 1.84566 -3.06516 -0.594326
O 2.37008 -2.58252 0.619518
O 3.23215 -1.40772 0.701254
O 3.49057 -0.683023 -0.542119
O 2.30034 2.49143 0.653816
O 1.69476 3.02383 -0.549104
O -1.77134 3.05547 0.637705
O -2.33026 2.5977 -0.61673
O -3.36655 -0.728268 0.629078
O -3.18616 -1.46053 -0.586675
O -0.358266 -3.45862 0.631212
O 0.440231 -3.33957 -0.569796
C -10.32 -30.912 0.418243
C -10.7168 -31.9626 -0.0371272
H -34.2173 25.8248 -0.754719
C -23.2696 30.9415 -34.7735
C -23.8528 30.0862 -34.1633
C 11.4356 22.1266 3.96873
C 12.4571 21.5647 3.61908
C -29.7736 -5.35585 14.1235
C -29.2055 -4.98149 13.1302
C -11.9336 15.3894 -12.9138
C -11.5078 16.3191 -13.5384
C 34.8435 -21.7878 -34.1768
C 34.7032 -22.9734 -34.0649
C -19.5624 39.6591 -23.642
C -19.6756 39.5853 -22.4441
C -23.3786 4.19502 -15.506
C -24.1758 3.37059 -15.9127
C -29.2199 2.41869 -2.23074
C -29.2406 1.70345 -1.23848
C -3.39879 36.3552 -32.9307
C -4.30879 35.7239 -33.3751
81
Atoms. Timestep: 40000
O 0.894436 0.715629 3.3295
O 1.90962 1.37171 2.56836
O -0.404278 1.22382 3.3789
O -0.677178 2.36561 2.59938
O -1.25103 0.006 3.38995
O -2.47035 0.00682 2.63587
O -0.373384 -1.1403 3.36066
O -0.698754 -2.35257 2.66122
O 1.00122 -0.727955 3.35305
O 2.00868 -1.47869 2.64006
O 2.35584 -0.0551792 -2.51585
O 1.18991 -0.155474 -3.34125
O 0.776936 2.19607 -2.50567
O 0.352096 0.997467 -3.2244
O -1.99944 1.33336 -2.45293
O -1.00382 0.573775 -3.17187
O -2.01587 -1.57499 -2.5012
O -1.01553 -0.850942 -3.15715
O 0.749099 -2.4982 -2.58769
O 0.300478 -1.30017 -3.26844
O 2.97898 -0.789525 1.88381
O 2.94823 0.636093 1.90086
O 1.57373 2.53482 1.80503
O 0.25366 3.09186 1.86237
O -1.92611 2.37109 1.9022
O -2.81882 1.1998 1.94209
O -2.79334 -1.19385 1.89316
O -1.95454 -2.39538 1.92167
O 0.24848 -3.0825 1.86287
O 1.57107 -2.5476 1.81791
O 2.89419 1.14239 -1.86906
O 2.07275 2.27293 -1.85696
O -0.216096 2.85078 -1.73924
O -1.6114 2.51073 -1.74772
O -2.9899 0.633476 -1.72736
O -2.98761 -0.821454 -1.81386
O -1.5787 -2.64077 -1.68524
O -0.245534 -3.16629 -1.77161
O 1.90984 -2.30712 -1.79598
O 2.74725 -1.20925 -1.78392
O 3.39623 0.704536 -0.653461
O 3.04887 1.29987 0.612125
O 0.423062 3.40521 -0.519682
O -0.40219 3.46152 0.666163
O -3.17388 1.4638 -0.548771
O -3.37034 0.761792 0.713064
O -2.26659 -2.59909 -0.449296
O -1.69653 -3.0097 0.743681
O 1.7447 -3.07759 -0.571395
O 2.32459 -2.68868 0.652881
O 3.08173 -1.4693 0.656822
O 3.3986 -0.737388 -0.594569
O 2.43695 2.61772 0.631598
O 1.79225 3.00169 -0.609702
O -1.77458 3.00184 0.645645
O -2.3207 2.56666 -0.567392
O -3.37674 -0.67148 0.67534
O -3.17186 -1.50118 -0.514502
O -0.362012 -3.49742 0.663853
O 0.369285 -3.54049 -0.537269
C -8.59147 -37.072 10.9192
C -8.14435 -36.3277 11.7732
H 7.94857 35.8434 -11.7659
C -18.5964 25.5266 35.6263
C -17.9515 24.77 36.3066
C -3.81441 26.053 6.3158
C -4.72442 25.5502 6.91748
C -28.6177 -18.7967 14.6846
C -29.4157 -18.4844 15.5293
C -17.6665 16.9899 -17.235
C -17.6126 17.9963 -17.8629
C 32.5365 -19.1373 -32.6674
C 32.1894 -19.8117 -31.7473
C -16.5965 -25.9971 -26.2475
C -15.6281 -26.0911 -26.97
C -24.3214 -0.0218668 -22.1832
C -24.2917 -1.19568 -22.414
C -30.4113 7.87512 -8.21566
C -29.2264 7.75569 -8.25634
C 11.8774 35.1886 -19.011
C 12.081 35.855 -20.026
81
Atoms. Timestep: 60000
O 0.949294 0.695402 3.22064
O 1.93435 1.38058 2.43719
O -0.404055 1.19813 3.42325
O -0.68599 2.30669 2.57661
O -1.25103 0.006 3.38995
O -2.47035 0.00682 2.63587
O -0.394976 -1.17183 3.35742
O -0.732357 -2.27076 2.55754
O 0.982408 -0.750134 3.32847
O 1.97618 -1.46365 2.63712
O 2.39523 -0.247082 -2.61157
O 1.17506 -0.196671 -3.322
O 0.736692 2.06502 -2.55498
O 0.362099 0.960778 -3.35256
O -1.94183 1.28965 -2.5124
O -0.992871 0.558745 -3.24187
O -2.08733 -1.57321 -2.57205
O -1.07919 -0.894859 -3.31543
O 0.683284 -2.52706 -2.60105
O 0.280955 -1.33361 -3.29599
O 2.94386 -0.833229 1.76754
O 2.90494 0.590153 1.7081
O 1.62951 2.58538 1.71234
O 0.25366 3.09186 1.86237
O -1.85284 2.25366 1.72557
O -2.79754 1.15948 1.77403
O -2.81857 -1.20186 1.91007
O -1.97554 -2.3046 1.87576
O 0.24848 -3.0825 1.86287
O 1.59236 -2.67315 1.93828
O 2.84481 0.945428 -1.94738
O 1.94123 2.09712 -1.77869
O -0.227703 2.89133 -1.85503
O -1.52343 2.48643 -1.83618
O -2.96607 0.601051 -1.78183
O -3.01086 -0.808493 -1.78649
O -1.63796 -2.6631 -1.77849
O -0.30008 -3.20362 -1.7794
O 1.87992 -2.4357 -1.81801
O 2.80725 -1.33371 -1.82533
O 3.40666 0.553388 -0.695635
O 3.06834 1.26821 0.469447
O 0.337939 3.4258 -0.650446
O -0.36252 3.39821 0.597354
O -3.18757 1.32645 -0.583342
O -3.46861 0.650124 0.635327
O -2.31796 -2.6303 -0.544615
O -1.76459 -3.05195 0.640568
O 1.71496 -3.10016 -0.548897
O 2.26895 -2.66539 0.654393
O 3.12468 -1.57815 0.614818
O 3.43382 -0.89184 -0.604783
O 2.35637 2.49049 0.482306
O 1.70042 2.91835 -0.621555
O -1.70315 3.04867 0.580034
O -2.24425 2.46632 -0.630363
O -3.3986 -0.758521 0.671092
O -3.13514 -1.49861 -0.527833
O -0.383061 -3.5147 0.624863
O 0.346469 -3.52646 -0.529885
C -6.00383 38.1513 23.098
C -6.41593 37.8869 21.984
H -30.0178 -34.1028 -22.8172
C -13.5654 19.6816 26.361
C -12.3707 19.8462 26.3745
C -20.5525 29.1942 9.62143
C -20.5318 30.3486 9.27716
C -28.8956 -31.6995 16.7549
C -28.1887 -32.62 16.4296
C -23.3929 18.6503 -21.6081
C -23.7653 19.6251 -22.1658
C 30.1102 -16.6764 -30.8529
C 29.7781 -16.44 -29.7213
C -12.0128 -11.7604 -30.0422
C -13.1737 -11.5598 -30.3317
C -25.2759 -4.59735 -28.9566
C -24.3997 -5.43421 -28.8655
C -30.447 13.2349 -14.263
C -30.3719 13.945 -15.2575
C 27.4265 34.7342 -6.13281
C 28.3093 35.2702 -5.53957
81
Atoms. Timestep: 80000
O 0.91378 0.732566 3.28001
O 1.94272 1.45721 2.58825
O -0.460033 1.15987 3.30476
O -0.731639 2.32528 2.58377
O -1.25103 0.006 3.38995
O -2.47035 0.00682 2.63587
O -0.417156 -1.15128 3.29573
O -0.72873 -2.35289 2.62084
O 0.915628 -0.724008 3.28702
O 1.95782 -1.4634 2.6801
O 2.41495 -0.104219 -2.56982
O 1.1706 -0.21435 -3.28467
O 0.719109 2.09357 -2.58207
O 0.384987 0.966059 -3.32047
O -2.02881 1.25687 -2.60207
O -0.99197 0.576394 -3.27055
O -2.06753 -1.59313 -2.58826
O -1.02707 -0.883955 -3.34266
O 0.659246 -2.47256 -2.45051
O 0.315859 -1.34054 -3.23813
O 2.87587 -0.788826 1.853
O 2.82861 0.638217 1.80466
O 1.60153 2.62464 1.8604
O 0.25366 3.09186 1.86237
O -1.96 2.31143 1.86056
O -2.84458 1.17469 1.84654
O -2.82592 -1.20408 1.88074
O -1.98421 -2.34924 1.88063
O 0.24848 -3.0825 1.86287
O 1.59983 -2.61643 1.84632
O 2.77898 1.06332 -1.83513
O 1.96374 2.22527 -1.89515
O -0.279395 2.75112 -1.83555
O -1.62202 2.33434 -1.80489
O -3.00791 0.580059 -1.836
O -2.95809 -0.833224 -1.78491
O -1.65774 -2.70128 -1.75038
O -0.293238 -3.20853 -1.68282
O 1.91365 -2.41608 -1.73729
O 2.76642 -1.22601 -1.72691
O 3.40083 0.710105 -0.574178
O 3.14383 1.35521 0.647278
O 0.324594 3.35404 -0.656598
O -0.383112 3.32253 0.572851
O -3.22274 1.3441 -0.609242
O -3.38666 0.668903 0.633492
O -2.39345 -2.6526 -0.533222
O -1.71235 -3.07903 0.661377
O 1.6667 -3.06406 -0.48117
O 2.33061 -2.66372 0.607929
O 3.16094 -1.50095 0.675259
O 3.32295 -0.729724 -0.516372
O 2.26781 2.50895 0.603647
O 1.7045 2.92713 -0.661471
O -1.70808 2.89658 0.567532
O -2.36889 2.49465 -0.641535
O -3.40073 -0.754631 0.642971
O -3.19542 -1.47164 -0.558103
O -0.38244 -3.59349 0.686449
O 0.368531 -3.56911 -0.483699
C -4.19813 32.8717 33.164
C -3.90553 32.6043 34.3079
H 12.0154 -24.0489 -33.8685
C -7.87751 13.9277 17.1025
C -7.44685 14.8313 16.4353
C -37.2819 34.1428 12.3342
C -36.3756 33.3572 12.133
C -27.9186 33.7629 18.2479
C -28.2167 34.8788 17.907
C -29.2222 20.3093 -25.7909
C -29.9904 21.101 -26.2524
C 27.5817 -14.1512 -28.6925
C 27.4689 -13.1325 -28.0412
C -9.32595 2.80417 -34.3089
C -8.82246 2.644 -33.2215
C -25.9426 -9.44981 -35.7006
C -24.7954 -9.39587 -35.3465
C -30.3206 19.3567 -21.5132
C -31.5046 19.5268 -21.4626
C -36.0841 34.8313 7.41794
C -36.375 34.1166 8.37156
81
Atoms. Timestep: 100000
O 0.965671 0.758665 3.32887
O 1.92884 1.46672 2.58136
O -0.401899 1.155 3.34078
O -0.737882 2.25555 2.50819
O -1.25103 0.006 3.38995
O -2.47035 0.00682 2.63587
O -0.352749 -1.15348 3.34098
O -0.715322 -2.32756 2.64463
O 0.960251 -0.673222 3.24527
O 1.90044 -1.41176 2.49898
O 2.4618 -0.0200946 -2.69649
O 1.25834 -0.0113019 -3.32687
O 0.798977 2.30845 -2.47118
O 0.455546 1.15942 -3.24845
O -1.93729 1.47402 -2.59199
O -0.936329 0.764411 -3.28984
O -1.96795 -1.38287 -2.55322
O -1.0273 -0.64455 -3.20419
O 0.685145 -2.39161 -2.60893
O 0.317871 -1.11959 -3.22545
O 2.89338 -0.722854 1.82931
O 2.94749 0.690067 1.83972
O 1.60945 2.6469 1.87476
O 0.25366 3.09186 1.86237
O -1.95758 2.28663 1.79782
O -2.83099 1.14035 1.82906
O -2.80048 -1.12244 1.81993
O -1.90908 -2.24543 1.85488
O 0.24848 -3.0825 1.86287
O 1.59245 -2.56622 1.77098
O 2.82279 1.13919 -1.91754
O 2.068 2.34952 -1.8361
O -0.145059 3.01145 -1.74877
O -1.54491 2.60844 -1.81697
O -2.94793 0.770648 -1.85298
O -2.94712 -0.652357 -1.78617
O -1.61253 -2.52303 -1.80176
O -0.291998 -3.04567 -1.79174
O 1.94477 -2.36982 -1.87974
O 2.7637 -1.18845 -1.91824
O 3.30488 0.700424 -0.606118
O 3.2019 1.39944 0.615934
O 0.466429 3.41226 -0.557572
O -0.311371 3.484 0.620466
O -3.14025 1.40898 -0.629167
O -3.48414 0.74964 0.585521
O -2.37805 -2.54126 -0.578335
O -1.68699 -2.93676 0.634423
O 1.68619 -3.05349 -0.620676
O 2.32055 -2.57755 0.587075
O 3.12333 -1.42395 0.587222
O 3.33071 -0.712223 -0.687621
O 2.4366 2.61611 0.680707
O 1.84226 3.04483 -0.53912
O -1.67353 3.00878 0.572789
O -2.23573 2.50174 -0.613578
O -3.45982 -0.672763 0.603995
O -3.16831 -1.35818 -0.549231
O -0.398158 -3.4871 0.664638
O 0.327413 -3.42659 -0.573836
C -1.83608 27.079 -34.5913
C -1.94786 27.8259 -35.5282
H -26.1588 -13.9106 34.53
C -1.94775 8.6674 7.46806
C -2.75592 9.31361 6.85592
C 27.9881 37.4407 13.2162
C 27.1625 38.3099 13.3882
C -27.4824 21.2472 19.0934
C -27.7377 20.4476 19.9552
C -34.929 21.6786 -31.4759
C -35.8782 21.6914 -30.7419
C 25.0161 -11.3168 -26.3312
C 25.1927 -10.1292 -26.5587
C -5.81387 17.1194 -36.8055
C -5.29049 17.1212 -37.8874
C -26.2434 -14.2979 37.6998
C -25.5432 -13.3757 38.0624
C -31.5029 26.0446 -26.7064
C -31.7993 25.7302 -27.8379
C -20.5448 34.1477 23.3752
C -21.4566 33.3416 23.4145
81
Atoms. Timestep: 120000
O 0.921552 0.736498 3.33032
O 1.93013 1.47965 2.62471
O -0.416851 1.19425 3.28053
O -0.748423 2.31632 2.56503
O -1.25103 0.006 3.38995
O -2.47035 0.00682 2.63587
O -0.341907 -1.09304 3.28229
O -0.685273 -2.25434 2.53883
O 0.968286 -0.67 3.43669
O 1.88135 -1.34839 2.62327
O 2.38857 0.161334 -2.46258
O 1.29288 0.0973221 -3.33466
O 0.822196 2.44654 -2.45484
O 0.415873 1.25894 -3.2319
O -1.98092 1.48923 -2.56715
O -0.934751 0.83913 -3.21589
O -1.92544 -1.3492 -2.60096
O -0.966587 -0.603837 -3.36895
O 0.758202 -2.17658 -2.61969
O 0.382547 -1.01261 -3.28797
O 2.90807 -0.627688 1.85519
O 2.91821 0.78405 1.90944
O 1.61689 2.6678 1.94567
O 0.25366 3.09186 1.86237
O -1.97405 2.3041 1.80564
O -2.82054 1.1768 1.89867
O -2.79744 -1.19008 1.85249
O -1.85886 -2.24987 1.82686
O 0.24848 -3.0825 1.86287
O 1.55191 -2.47102 1.77712
O 2.82106 1.27658 -1.71126
O 1.97012 2.40739 -1.58812
O -0.175137 3.13051 -1.69275
O -1.53022 2.64337 -1.83538
O -2.88971 0.829235 -1.73996
O -2.82036 -0.59666 -1.78869
O -1.53756 -2.52204 -1.82624
O -0.20612 -2.94832 -1.88933
O 1.97613 -2.15333 -1.84075
O 2.71968 -0.988135 -1.74965
O 3.4681 0.875438 -0.57105
O 3.24673 1.51505 0.726389
O 0.39694 3.5447 -0.466978
O -0.412944 3.5116 0.658831
O -3.19597 1.56083 -0.530051
O -3.35952 0.782744 0.648435
O -2.28232 -2.46921 -0.588847
O -1.6448 -2.94253 0.5715
O 1.75334 -2.91233 -0.661987
O 2.33164 -2.45096 0.545682
O 3.08196 -1.27094 0.646203
O 3.37777 -0.570209 -0.565601
O 2.42248 2.68933 0.775578
O 1.77817 3.22117 -0.389664
O -1.76608 3.05291 0.613654
O -2.30862 2.68753 -0.612102
O -3.29217 -0.674011 0.609491
O -3.08326 -1.31515 -0.6047
O -0.322443 -3.42538 0.554278
O 0.411029 -3.33949 -0.664487
C 0.296904 22.7058 -24.1807
C 0.221787 21.6575 -23.6084
H 23.8495 -5.77632 6.24493
C 3.36074 10.3538 -0.628053
C 3.70333 10.9459 0.360147
C 11.8149 -37.5151 14.333
C 12.4689 -38.5182 14.2604
C -27.4984 7.38428 21.4318
C -26.8312 7.55123 20.4423
C -39.9426 24.1786 -35.2916
C 39.7208 23.0698 -34.9799
C 22.5093 -8.11404 -24.0312
C 22.8735 -7.51348 -25.0275
C -1.50385 31.4154 38.9185
C -2.64959 31.5684 39.2314
C -26.7572 -18.7474 31.9286
C -26.7508 -17.5598 32.0892
C -33.4703 31.6055 -33.5264
C -33.4462 31.0934 -34.6362
C -5.52055 33.0731 39.4107
C -6.25077 32.8306 38.5011
81
Atoms. Timestep: 140000
O 1.01858 0.742092 3.44126
O 1.9383 1.51098 2.6224
O -0.368203 1.11372 3.28999
O -0.724418 2.37335 2.62749
O -1.25103 0.006 3.38995
O -2.47035 0.00682 2.63587
O -0.369229 -1.14871 3.27413
O -0.761736 -2.31312 2.57295
O 0.95235 -0.719813 3.35727
O 1.9601 -1.38853 2.57335
O 2.47599 0.186117 -2.4877
O 1.29801 0.178909 -3.34036
O 0.819462 2.48009 -2.53517
O 0.483747 1.34438 -3.29915
O -1.92089 1.54685 -2.61782
O -0.891529 0.844475 -3.31809
O -1.90295 -1.28055 -2.59003
O -0.955108 -0.542512 -3.39942
O 0.861975 -2.16739 -2.66849
O 0.409023 -0.985889 -3.37505
O 2.89261 -0.676646 1.85911
O 2.95065 0.769392 1.93112
O 1.60557 2.71934 1.92491
O 0.25366 3.09186 1.86237
O -1.93709 2.33212 1.89201
O -2.6983 1.13471 1.84962
O -2.86227 -1.13055 1.92761
O -2.02089 -2.31222 1.88122
O 0.24848 -3.0825 1.86287
O 1.57009 -2.56299 1.8166
O 2.77065 1.26059 -1.69125
O 1.98299 2.42623 -1.73669
O -0.207517 3.10208 -1.7669
O -1.53323 2.6466 -1.804
O -2.882 0.815339 -1.81292
O -2.92904 -0.629059 -1.82468
O -1.61104 -2.47288 -1.88931
O -0.184278 -2.82134 -1.89191
O 2.05001 -2.15117 -1.83453
O 2.84873 -0.997291 -1.80848
O 3.44632 0.860899 -0.484996
O 3.08353 1.4842 0.723301
O 0.367455 3.65424 -0.582442
O -0.318199 3.52922 0.671539
O -3.11181 1.47182 -0.589863
O -3.35914 0.763048 0.658994
O -2.29486 -2.42202 -0.623609
O -1.70283 -2.86332 0.601051
O 1.74375 -2.85098 -0.672851
O 2.31395 -2.52846 0.611887
O 3.10795 -1.36365 0.655098
O 3.35475 -0.565579 -0.501319
O 2.31952 2.68987 0.685966
O 1.74783 3.16763 -0.511569
O -1.69034 3.05573 0.669195
O -2.2418 2.64775 -0.571463
O -3.38644 -0.662391 0.669001
O -3.19113 -1.35793 -0.610397
O -0.396845 -3.40334 0.595673
O 0.346868 -3.23839 -0.632156
C 2.28864 16.298 -12.6435
C 2.55578 17.4628 -12.6916
H -6.26169 2.3871 -22.0287
C 9.74767 17.2305 -5.37329
C 8.70433 17.0868 -4.78651
C -3.12125 -34.4254 15.2978
C -3.6352 -33.3456 15.2958
C -26.3161 -6.29808 22.0335
C -27.1181 -5.67597 22.6821
C 34.8084 25.9824 -38.8955
C 35.5471 25.2162 -39.4445
C 20.1027 -4.7404 -22.0411
C 20.4271 -5.03591 -23.1648
C 5.57026 -36.7612 34.2598
C 6.74953 -36.9471 34.1606
C -27.2423 -22.965 26.1628
C -28.0009 -22.023 26.0305
C -35.45 37.1373 39.5387
C -35.1458 36.4969 38.5735
C 5.06094 35.2594 -23.9272
C 4.08529 34.648 -24.33
81
Atoms. Timestep: 160000
O 0.937491 0.671568 3.28484
O 1.9037 1.37552 2.53781
O -0.384831 1.16881 3.38204
O -0.766938 2.3401 2.60637
O -1.25103 0.006 3.38995
O -2.47035 0.00682 2.63587
O -0.394421 -1.17836 3.43205
O -0.7475 -2.21148 2.51325
O 0.983484 -0.766066 3.3566
O 1.94696 -1.54048 2.62176
O 2.38794 -0.0514665 -2.51418
O 1.21115 -0.00673623 -3.30155
O 0.787713 2.29469 -2.5068
O 0.373812 1.17105 -3.26453
O -1.89021 1.52479 -2.46576
O -1.00085 0.773733 -3.299
O -1.93609 -1.41314 -2.49861
O -0.988204 -0.66613 -3.3137
O 0.743541 -2.33528 -2.48952
O 0.367803 -1.13824 -3.20528
O 2.85635 -0.758291 1.82908
O 2.83467 0.654403 1.78362
O 1.62179 2.58601 1.84067
O 0.25366 3.09186 1.86237
O -1.97218 2.37401 1.84465
O -2.84292 1.22729 1.91147
O -2.8523 -1.13019 1.81152
O -1.94408 -2.23771 1.7554
O 0.24848 -3.0825 1.86287
O 1.60421 -2.69362 1.90531
O 2.84493 1.14392 -1.87876
O 1.97844 2.31311 -1.76853
O -0.169045 3.13038 -1.81643
O -1.56544 2.76601 -1.77209
O -2.85079 0.736613 -1.73594
O -2.8623 -0.706338 -1.76698
O -1.58998 -2.59496 -1.7755
O -0.229045 -3.05162 -1.7435
O 2.01096 -2.30103 -1.80099
O 2.82444 -1.19501 -1.7777
O 3.35086 0.750457 -0.585865
O 3.21933 1.42566 0.632643
O 0.422083 3.54348 -0.56356
O -0.362258 3.52682 0.655069
O -3.03403 1.46397 -0.51212
O -3.37265 0.759724 0.68975
O -2.36978 -2.57614 -0.559779
O -1.69729 -3.00014 0.593463
O 1.76715 -3.06375 -0.577474
O 2.35196 -2.6367 0.657187
O 3.13416 -1.42874 0.641327
O 3.38538 -0.710581 -0.574293
O 2.4121 2.60671 0.629019
O 1.75606 3.02045 -0.604
O -1.68442 3.068 0.608201
O -2.27462 2.69906 -0.549421
O -3.45696 -0.650359 0.670853
O -3.17779 -1.36117 -0.525519
O -0.329026 -3.4565 0.605491
O 0.417812 -3.58715 -0.602206
C 4.79786 12.0621 -1.13742
C 4.39125 11.0598 -1.66222
H -36.4804 10.5796 29.5982
C 15.2279 24.0009 -9.61819
C 14.6484 23.3781 -10.4705
C -19.1545 -29.1725 16.2704
C -18.7523 -30.3069 16.3305
C -26.5085 -18.9401 23.7396
C -26.0272 -20.0393 23.8273
C 30.0754 27.2333 37.0907
C 30.8239 27.9295 36.4723
C 17.7693 -1.46076 -20.3361
C 17.8902 -2.44358 -21.0034
C 15.0175 -25.3022 29.6977
C 13.9276 -25.2711 29.1735
C -27.9271 -26.9234 20.3458
C -29.0573 -26.7757 19.9811
C -37.4175 -37.3311 32.5643
C -36.8706 -38.0605 31.7741
C 15.3151 37.6168 -7.3464
C 14.7291 36.5642 -7.17481
81
Atoms. Timestep: 180000
O 0.955713 0.765654 3.2239
O 2.04996 1.50657 2.56269
O -0.410872 1.21973 3.32527
O -0.758117 2.3957 2.59035
O -1.25103 0.006 3.38995
O -2.47035 0.00682 2.63587
O -0.33751 -1.09499 3.34047
O -0.701169 -2.3105 2.63846
O 0.985574 -0.660629 3.31902
O 1.95022 -1.33894 2.56217
O 2.47401 -0.120625 -2.63987
O 1.24892 -0.172608 -3.35549
O 0.759024 2.14546 -2.52332
O 0.370744 1.00916 -3.19205
O -1.97883 1.32675 -2.6165
O -0.994174 0.597612 -3.32945
O -1.95094 -1.58304 -2.53235
O -0.967338 -0.858536 -3.25696
O 0.773605 -2.44608 -2.51938
O 0.36676 -1.32965 -3.34098
O 2.92528 -0.644196 1.80695
O 3.02075 0.771387 1.81465
O 1.60768 2.6289 1.79281
O 0.25366 3.09186 1.86237
O -1.98258 2.31897 1.81994
O -2.82671 1.13879 1.8188
O -2.84985 -1.20493 1.92283
O -1.94029 -2.34702 1.94559
O 0.24848 -3.0825 1.86287
O 1.62085 -2.62553 1.93037
O 2.86308 1.10617 -1.89809
O 2.04766 2.26571 -1.85058
O -0.2246 2.91914 -1.81884
O -1.60275 2.51169 -1.83101
O -3.0256 0.648786 -1.90587
O -2.94847 -0.807576 -1.81
O -1.58006 -2.69272 -1.72165
O -0.190008 -3.104 -1.69255
O 2.01761 -2.39762 -1.70786
O 2.818 -1.23888 -1.80044
O 3.39829 0.660178 -0.635347
O 3.18149 1.43659 0.574207
O 0.391089 3.40454 -0.644206
O -0.369338 3.30986 0.586144
O -3.2523 1.3412 -0.664194
O -3.31812 0.633712 0.601449
O -2.30375 -2.66931 -0.516256
O -1.73134 -3.08539 0.72225
O 1.79177 -3.13402 -0.506191
O 2.40707 -2.60328 0.704937
O 3.27231 -1.42512 0.637408
O 3.4285 -0.758856 -0.603685
O 2.36052 2.58989 0.608099
O 1.78749 2.97798 -0.631966
O -1.67443 2.86586 0.532674
O -2.29831 2.39485 -0.638727
O -3.37398 -0.775705 0.647844
O -3.1238 -1.47881 -0.550703
O -0.383264 -3.55683 0.665739
O 0.443054 -3.56341 -0.488552
C 6.50217 5.89648 9.33202
C 6.94646 6.51813 10.2671
H 13.4385 18.7348 1.35425
C 20.1636 30.1861 -14.5994
C 21.0841 30.1946 -15.3735
C -29.0814 -21.9218 15.6906
C -30.142 -22.5019 15.7899
C -25.8721 -33.4464 25.5172
C -25.8015 -32.4826 24.7963
C 25.8983 28.9833 32.6532
C 25.5878 30.1257 32.8494
C 15.4854 1.5624 -18.8325
C 15.3259 0.378477 -18.6584
C 22.3754 -13.8286 24.2086
C 23.1194 -13.7149 25.1569
C -34.1688 -34.635 15.2641
C -34.2083 -34.4703 16.4607
C -39.3722 -31.8454 25.5813
C -38.5914 -32.6221 25.0459
C 25.4339 39.7313 9.22879
C 25.4132 38.7037 9.8324
81
Atoms. Timestep: 200000
O 1.00412 0.664464 3.43059
O 1.90817 1.31584 2.55198
O -0.336412 1.09659 3.33637
O -0.696783 2.2256 2.54605
O -1.25103 0.006 3.38995
O -2.47035 0.00682 2.63587
O -0.44489 -1.18912 3.41671
O -0.756733 -2.32581 2.57887
O 0.977844 -0.782235 3.37979
O 1.97738 -1.52966 2.65411
O 2.47444 -0.213747 -2.54729
O 1.24661 -0.217302 -3.33596
O 0.752908 2.12409 -2.54586
O 0.364716 0.953876 -3.24899
O -1.8923 1.343 -2.52047
O -0.961773 0.55855 -3.22913
O -1.89607 -1.5821 -2.59729
O -0.936351 -0.8681 -3.29346
O 0.764566 -2.52959 -2.57494
O 0.38313 -1.35505 -3.35208
O 2.85977 -0.817731 1.84795
O 2.88409 0.582637 1.88768
O 1.5757 2.53248 1.88307
O 0.25366 3.09186 1.86237
O -1.82037 2.15745 1.72042
O -2.75635 1.16291 1.83924
O -2.75374 -1.16675 1.82947
O -1.9431 -2.31328 1.82117
O 0.24848 -3.0825 1.86287
O 1.57941 -2.68544 1.90452
O 2.7767 0.989638 -1.82911
O 1.96031 2.09508 -1.77956
O -0.19701 2.95831 -1.81181
O -1.52619 2.53317 -1.87333
O -2.95309 0.581442 -1.86648
O -2.90053 -0.841684 -1.83542
O -1.61163 -2.72743 -1.78859
O -0.262619 -3.20243 -1.82562
O 1.95637 -2.5183 -1.80609
O 2.84699 -1.40708 -1.81408
O 3.38556 0.574526 -0.580764
O 3.15333 1.29082 0.645806
O 0.407677 3.45157 -0.612137
O -0.318491 3.46403 0.631074
O -3.1244 1.3549 -0.65494
O -3.3197 0.711145 0.641189
O -2.36446 -2.65941 -0.553803
O -1.75063 -3.12027 0.68738
O 1.68498 -3.18913 -0.570183
O 2.33689 -2.75565 0.665219
O 3.05654 -1.51889 0.635487
O 3.33917 -0.878313 -0.589346
O 2.31239 2.45397 0.637628
O 1.72072 2.85028 -0.586135
O -1.64842 2.89684 0.540324
O -2.29996 2.55948 -0.714025
O -3.34346 -0.756689 0.631288
O -3.11826 -1.48124 -0.562309
O -0.371487 -3.56418 0.73409
O 0.30479 -3.53606 -0.52804
C 9.02528 0.80967 21.6106
C 8.65088 0.764015 20.4564
H -16.7857 26.9288 -27.024
C 25.9469 36.411 -20.2917
C 26.7263 37.0334 -19.6123
C -37.0825 -12.4245 13.9898
C -35.9413 -12.0387 13.8267
C -25.0968 33.616 26.0138
C -25.7239 33.3565 27.0078
C 21.4848 31.5732 28.3301
C 20.5435 31.5008 29.074
C 13.1432 4.28514 -17.2589
C 12.797 3.52876 -16.3649
C 31.1331 -2.07919 20.4889
C 30.99 -2.32517 19.3257
C 36.7261 35.0296 13.1347
C 35.8454 35.5732 12.5372
C 38.7144 -26.3745 18.5514
C 39.6289 -27.1168 18.2994
C 35.5579 -38.3428 25.9687
C 36.191 -38.9479 26.8346
81
Atoms. Timestep: 220000
O 0.984102 0.700904 3.34733
O 1.89982 1.44946 2.6128
O -0.330148 1.07415 3.33326
O -0.6941 2.28611 2.63592
O -1.25103 0.006 3.38995
O -2.47035 0.00682 2.63587
O -0.394426 -1.14869 3.39647
O -0.739106 -2.31582 2.59599
O 0.992061 -0.73754 3.49191
O 1.87265 -1.37005 2.56461
O 2.48347 0.0110052 -2.48435
O 1.24371 0.0324058 -3.21831
O 0.814951 2.36794 -2.54336
O 0.388133 1.20995 -3.27458
O -1.99757 1.42808 -2.5566
O -0.967405 0.759163 -3.26429
O -1.95796 -1.42161 -2.47278
O -0.976344 -0.672412 -3.18119
O 0.784804 -2.30791 -2.42981
O 0.37737 -1.12244 -3.15145
O 2.87207 -0.656703 1.8434
O 2.93531 0.796023 1.93194
O 1.57829 2.6089 1.85261
O 0.25366 3.09186 1.86237
O -1.90196 2.28369 1.89382
O -2.73256 1.15361 1.84362
O -2.83004 -1.20188 1.92083
O -1.96391 -2.33768 1.84593
O 0.24848 -3.0825 1.86287
O 1.56446 -2.56535 1.88213
O 2.87102 1.15969 -1.71556
O 2.0378 2.31392 -1.79692
O -0.201319 3.00706 -1.78464
O -1.57405 2.57143 -1.78101
O -2.91378 0.70883 -1.69918
O -3.01626 -0.730373 -1.75233
O -1.58088 -2.57622 -1.71264
O -0.231157 -2.95289 -1.66427
O 2.00152 -2.30474 -1.72744
O 2.84745 -1.14336 -1.71481
O 3.44746 0.747551 -0.515223
O 3.20081 1.48519 0.678412
O 0.418788 3.44512 -0.551224
O -0.328332 3.434 0.608819
O -3.13139 1.46073 -0.487719
O -3.4363 0.701112 0.678981
O -2.43956 -2.71458 -0.540394
O -1.76055 -3.0527 0.654592
O 1.74352 -3.02031 -0.483248
O 2.34145 -2.56872 0.694736
O 3.25542 -1.43518 0.685309
O 3.46963 -0.666926 -0.510515
O 2.34122 2.6419 0.649025
O 1.74515 3.06405 -0.596119
O -1.65478 2.95457 0.669741
O -2.30407 2.59523 -0.505516
O -3.31795 -0.752591 0.638089
O -3.18523 -1.48301 -0.574673
O -0.417891 -3.43406 0.647074
O 0.403085 -3.54831 -0.509976
C 10.8759 -4.36203 31.8206
C 11.0548 -4.97439 32.8578
H 32.7973 35.1751 24.4167
C 32.4086 -36.8054 -25.4464
C 31.763 -36.6033 -24.4521
C 37.1291 -2.13523 11.9465
C 35.9588 -2.24004 12.1825
C -25.376 20.1992 28.1659
C -24.5861 19.502 27.5812
C 16.2892 34.13 24.5748
C 16.2208 32.9342 24.679
C 10.7019 6.87633 -15.4481
C 10.3361 6.84807 -14.2839
C 39.7327 9.28495 14.6014
C 39.1249 9.59758 15.6013
C 26.2996 25.4057 10.1148
C 27.0988 24.7757 9.46549
C 36.8187 -20.8809 11.4955
C 37.8081 -21.5643 11.491
C -34.0998 -36.6217 -36.932
C -33.116 -36.3675 -36.3072
81
Atoms. Timestep: 240000
O 0.986889 0.691753 3.30655
O 1.94717 1.33376 2.53728
O -0.383545 1.18383 3.34738
O -0.720401 2.33907 2.6055
O -1.25103 0.006 3.38995
O -2.47035 0.00682 2.63587
O -0.362136 -1.1187 3.2675
O -0.800768 -2.35747 2.6233
O 1.03007 -0.753961 3.34219
O 2.00397 -1.51226 2.62359
O 2.39133 0.128881 -2.49863
O 1.18613 0.154579 -3.1956
O 0.708904 2.41859 -2.54333
O 0.338951 1.29854 -3.36827
O -2.03407 1.43835 -2.61729
O -1.02507 0.780921 -3.40736
O -1.99013 -1.32401 -2.54722
O -0.975799 -0.638156 -3.35167
O 0.744093 -2.18487 -2.53004
O 0.393448 -1.03236 -3.26438
O 2.88185 -0.754173 1.76163
O 3.05519 0.656226 1.89864
O 1.56186 2.51956 1.86632
O 0.25366 3.09186 1.86237
O -1.941 2.30107 1.90995
O -2.75907 1.17421 1.88284
O -2.84212 -1.18942 1.94114
O -2.02472 -2.31675 1.91892
O 0.24848 -3.0825 1.86287
O 1.62643 -2.64497 1.77957
O 2.7766 1.30841 -1.80361
O 1.92339 2.42913 -1.8042
O -0.272565 3.07133 -1.74847
O -1.6209 2.57151 -1.78571
O -2.95899 0.690686 -1.85108
O -2.93589 -0.695817 -1.74504
O -1.61059 -2.52726 -1.79866
O -0.225199 -2.91671 -1.78266
O 1.97593 -2.26769 -1.85125
O 2.75579 -1.05867 -1.86304
O 3.36201 0.77429 -0.596144
O 3.17061 1.38233 0.692299
O 0.30932 3.51175 -0.569543
O -0.420831 3.51344 0.65433
O -3.1339 1.36906 -0.631094
O -3.3282 0.735049 0.669635
O -2.23448 -2.51245 -0.514545
O -1.72819 -2.92576 0.687805
O 1.77025 -3.076 -0.685558
O 2.39152 -2.57401 0.532096
O 3.17899 -1.39372 0.521442
O 3.44635 -0.678057 -0.629388
O 2.35382 2.56814 0.640527
O 1.71279 3.02405 -0.532299
O -1.79669 3.06639 0.67005
O -2.40924 2.63138 -0.562843
O -3.44039 -0.734055 0.690574
O -3.13495 -1.40376 -0.513474
O -0.374039 -3.45184 0.599936
O 0.381164 -3.40472 -0.623959
C 13.0543 -10.6782 -36.0506
C 13.1425 -9.59839 -36.5974
H 2.29644 -36.5559 -4.22139
C 38.3788 -29.849 -29.8428
C 37.3228 -30.3764 -30.0779
C 29.0082 7.98793 10.3677
C 30.1529 7.78006 10.0636
C -24.3938 5.61815 29.3981
C -24.7074 6.73648 29.0818
C 11.0212 35.6634 20.8983
C 11.9443 35.402 20.1828
C 8.18254 9.49249 -13.3986
C 7.9397 10.1587 -12.4309
C -32.7436 21.2359 10.4623
C -31.6183 20.9977 10.102
C 17.0171 14.8307 6.13236
C 17.1554 14.873 7.33954
C 34.9323 -15.3789 4.42758
C 35.9677 -15.9897 4.65653
C -23.424 -34.8335 -19.5819
C -22.6987 -33.8423 -19.6063
81
Atoms. Timestep: 260000
O 0.925999 0.758386 3.39993
O 1.87893 1.44914 2.64166
O -0.427562 1.18236 3.4
O -0.710264 2.34106 2.58203
O -1.25103 0.006 3.38995
O -2.47035 0.00682 2.63587
O -0.400447 -1.13103 3.4496
O -0.722693 -2.25449 2.62361
O 0.943981 -0.672023 3.47138
O 1.88355 -1.32125 2.59232
O 2.38988 0.0759953 -2.57261
O 1.25457 0.136731 -3.41511
O 0.834811 2.34994 -2.58568
O 0.398793 1.26021 -3.40196