LAMMPS data file via write_data, version 3 Mar 2020, timestep = 10000000

459 atoms
4 atom types

-4.0000000000000000e+01 4.0000000000000000e+01 xlo xhi
-4.0000000000000000e+01 4.0000000000000000e+01 ylo yhi
-4.0000000000000000e+01 4.0000000000000000e+01 zlo zhi

Masses

1 12.0107
2 12.0107
3 12.0107
4 1.00794

Atoms # full

329 142 3 -6.0043537635875999e-04 -3.5648780159629851e+01 -3.2558050195881549e+01 -3.0149013203531183e+01 36 -17 -7
328 142 3 -6.0043537635873223e-04 -3.5256532079220406e+01 -3.1462983875978647e+01 -3.0438794337356871e+01 36 -17 -7
456 209 3 -5.9779972004989079e-04 -2.1735555828142328e+01 -3.7852772139822918e+01 -6.1737884917088151e+00 12 22 7
457 209 3 -5.9779972004975201e-04 -2.0547544178985138e+01 -3.7795778484099586e+01 -6.2609149108522271e+00 12 22 7
388 173 3 -6.0140347216841583e-04 -3.1519104736690817e+01 -1.1845902365533810e+01 -2.2024596801961408e+01 16 -20 -16
387 173 3 -6.0140347216841583e-04 -3.1999096200906173e+01 -1.0731210051313864e+01 -2.2189644454749036e+01 16 -20 -16
157 52 3 -7.2705870241279724e-04 -8.4356446373881955e+00 -1.7096455597598052e+01 -3.0111973718374343e+00 -108 -13 6
156 52 3 4.3103249883664346e-04 -7.2040907958136522e+00 -1.7203683591379054e+01 -2.9331522857968038e+00 -108 -13 6
277 115 3 1.8713113763214398e-03 -4.7263591219554106e+00 -1.7383008498106374e+01 -2.8176707652305621e+00 -14 -5 -30
276 115 3 -1.7604023768633403e-03 -5.8948106190721026e+00 -1.7357716495493978e+01 -2.8531924724352127e+00 -14 -5 -30
146 46 3 -1.7215549583180417e-02 -3.1940136253134601e+00 -1.7425529227219648e+01 -2.7161794092795968e+00 29 -18 -2
392 175 3 1.3629436360606956e-03 -2.8744280539942615e+00 -1.5992432615567159e+01 -3.2646701207887912e+00 -2 -1 5
189 69 4 2.0313714092541332e-02 -2.6495808475078997e+00 -1.8263084248151369e+01 -3.2778331904580087e+00 7 -9 2
391 175 3 -1.4120292213742891e-03 -2.6347719732175010e+00 -1.4930507774761251e+01 -3.5153045175609101e+00 -2 -1 5
145 46 3 1.4789979856784166e-03 -2.7856985919552435e+00 -1.7284756381744113e+01 -1.2000554348890788e+00 29 -18 -2
183 66 3 -1.4851497400859004e-03 -2.3227075337432819e+00 -1.6972261959381573e+01 -2.2751976594684467e-01 25 23 4
330 143 3 4.0442728002645922e-05 -2.2888794086635991e+00 -1.3415129585923134e+01 -3.7043235025726129e+00 3 -18 -5
195 72 3 -1.4448020964746150e-04 -1.5814037105808576e+00 -7.4687888128928286e+00 -3.1778071257785530e+00 -4 10 1
331 143 3 -2.3448966300654295e-04 -2.0084997687558230e+00 -1.2325556931165119e+01 -3.7055737789483767e+00 3 -18 -5
163 55 3 -1.5234563746940877e-04 -1.6659678696086537e+00 -1.0864448875293041e+01 -3.6872660578398775e+00 -7 -7 -36
162 55 3 -1.8432162269327312e-04 -1.2928659134837452e+00 -9.8038388595632959e+00 -3.7256600130643842e+00 -7 -7 -36
194 72 3 -1.5742941059373322e-04 -7.8021006819837624e-01 -8.4017834726906440e+00 -3.6329102253828771e+00 -4 10 1
382 170 3 -5.9948379243277006e-04 -1.8812172073839573e+01 -4.6000769981112963e+00 -7.6812090593352069e+00 10 43 29
381 170 3 -5.9948379243257577e-04 -1.9756626802113050e+01 -3.9638558065068334e+00 -7.2716848968133965e+00 10 43 29
176 62 3 6.8612132250378544e-04 -6.8174659923496259e+00 -8.3362937144189586e-01 -6.7979861126300789e-01 -19 24 28
48 1 1 -3.5565604303219867e-06 -1.6844836792982534e+00 -3.1070245314360418e+00 6.7972361335661990e-01 0 0 0
113 29 3 -1.3956220655882146e-04 -2.6187366850411191e+00 -6.4959937926181786e+00 -1.1576821095476793e-01 -5 15 15
137 42 3 -1.1854310207690122e-04 -2.7165786766669067e+00 -6.4987424313730466e+00 -1.2244553187260707e+00 -6 -10 -8
138 42 3 -1.6645501995970341e-04 -2.3399774137468761e+00 -6.5328926489222550e+00 -2.7582271056539787e+00 -6 -10 -8
133 40 3 -3.9028231081907061e-05 -1.9066838477537214e+00 -4.3668303813192582e+00 -4.1805273364807007e+00 12 -7 7
17 1 1 -1.2326845244171186e-04 -2.0076532612569862e+00 -1.6379544820204628e+00 -2.5210293102299288e+00 0 0 0
18 1 1 -7.7850090474727504e-05 -1.0753836138760149e+00 -9.4624588342633309e-01 -3.2960719521347204e+00 0 0 0
36 1 1 -2.5747150668190000e-04 -2.9099644959851294e+00 -8.5714107655043847e-01 -1.6939745636408805e+00 0 0 0
37 1 1 5.2495270441840422e-05 -1.5867033048736239e+00 -2.7431509205296010e+00 -1.7352427793842011e+00 0 0 0
47 1 1 -1.0173931910424650e-04 -2.2948908634313785e+00 -2.7187422412984827e+00 -4.7533014186823719e-01 0 0 0
58 1 1 -3.7643137201281984e-05 -3.1807789314906891e+00 -1.6183382872084981e+00 -4.5094127155179392e-01 0 0 0
38 1 1 9.2696430876107981e-05 -2.1674913352313410e-01 -3.2483360080269592e+00 -1.8040291680506120e+00 0 0 0
144 45 3 -2.0058486237763129e-04 -1.4080985724544524e+00 -3.3281274870141231e+00 -5.2350307359399499e+00 2 -7 -1
134 40 3 -1.7552525708723621e-04 -2.2193950013996697e+00 -5.2436747067063676e+00 -3.5682721181147357e+00 12 -7 7
143 45 3 1.9001568091446541e-04 -9.7804722982789116e-01 -2.6383799769692149e+00 -5.9716330595791360e+00 2 -7 -1
151 49 3 -1.1359374239120826e-03 -4.3619770515040018e-01 -1.4525303887834105e+00 -6.9167981283371320e+00 -10 -8 12
293 123 3 -9.2508841717382079e-04 -1.2220790897585307e+00 -4.4513359337406477e-01 -7.5443678128404104e+00 -14 13 34
459 210 3 -6.0335013525192327e-04 -3.5832394250045603e+01 -1.7634513477446255e+01 5.7414384203433553e+00 16 -11 -7
458 210 3 -6.0335013525200654e-04 -3.4894346300512069e+01 -1.7675343802167667e+01 6.5499004090131967e+00 16 -11 -7
184 66 3 1.3964286091960876e-05 -1.6027928276153185e+00 -1.6347944708540258e+01 9.4267537212748853e-01 25 23 4
152 50 3 -1.7331533270800725e-04 -1.0242574982753077e+00 -1.5847252923013357e+01 1.7703445658055963e+00 34 -4 -12
153 50 3 -2.1568283390031862e-04 -8.7128619020427789e-02 -1.5330842008834583e+01 2.7465947643886510e+00 34 -4 -12
405 182 3 -2.4097087102741277e-03 -3.9181548588605303e+01 -6.9826721169935215e+00 1.9242808570229706e+00 5 0 -23
404 182 3 -2.4428150727381914e-04 -3.9327601098525015e+01 -8.1417562126817291e+00 1.7228066937730691e+00 5 0 -23
261 107 3 1.6306374083036035e-05 -9.3979871729700228e+00 -8.3620829487518709e+00 7.3113563377312474e+00 10 -27 8
272 112 3 -7.4920155168998331e-05 -8.5590712228950885e+00 -7.6282296357709445e+00 7.0571519443302728e+00 17 -23 1
271 112 3 1.6320358749343606e-04 -7.4566969073899063e+00 -6.8246514510811993e+00 6.8933648776917948e+00 17 -23 1
262 107 3 -2.3405533371599618e-04 -1.0474276056330595e+01 -9.1354721276139337e+00 7.6777527118612765e+00 10 -27 8
334 145 3 -2.5612466748940743e-04 -7.5811600408011444e+00 -1.1629456880610279e+01 7.7372272255605719e+00 -8 -14 28
335 145 3 -1.9999046785576513e-04 -6.7610375647349068e+00 -1.1001147791579207e+01 6.9446999193928569e+00 -8 -14 28
76 10 3 -9.2879976099927153e-05 -2.5804251581749917e+00 -7.7730996358960018e+00 7.8061914936355219e+00 31 11 33
352 154 3 -6.6883636095832477e-05 -3.3469187600306300e+00 -1.0418996796172095e+01 6.0494131938256350e+00 -22 -11 1
187 68 3 -7.2185921663137087e-05 -4.8649409074692551e+00 -8.7108358939236545e+00 4.7801408112472359e+00 -50 -7 4
373 165 3 -2.6442553786629186e-05 -4.9877464718749973e+00 -7.9326127497525603e+00 4.0044314385685080e+00 1 9 6
188 68 3 -1.6396964079588849e-05 -4.7084670731024811e+00 -9.7899228178015179e+00 5.8882200906677609e+00 -50 -7 4
372 165 3 -1.7250587213304969e-04 -5.8370665531216090e+00 -1.0352924942774395e+01 6.4254543736036638e+00 1 9 6
64 4 3 -7.4999025871394509e-05 -2.3039121135787628e+00 -1.0800022690248850e+01 6.1743901910256307e+00 148 44 5
77 10 3 2.3269672821506215e-05 -1.6021513683734179e+00 -7.7597707973440597e+00 6.9548801814677210e+00 31 11 33
117 31 3 -3.8362182551043844e-04 -1.1180086201264601e+00 -7.2706143291903738e+00 3.4079180772248745e+00 0 34 -5
351 154 3 -2.3888125657098302e-04 -8.7065171111556683e-01 -1.1410932957935815e+01 6.2144225256839887e+00 -22 -11 1
86 15 3 -2.0842103568232892e-04 -1.0474896958339097e+00 -7.5336409431617355e+00 4.5143915119865587e+00 17 -30 -12
85 15 3 -1.5645097631289753e-04 -6.9373790304660332e-01 -7.7470493381015997e+00 5.9531215839730152e+00 17 -30 -12
116 31 3 -3.6633436015454102e-05 -1.2329935141965016e+00 -6.9877704902219415e+00 1.9972987456520044e+00 0 34 -5
227 89 3 -4.5535491845778708e-05 -5.0143103974261978e+00 -6.7760062462589650e+00 2.8740182313154778e+00 3 -22 39
112 29 3 4.2718264706687742e-05 -2.6265904794995993e+00 -6.5250474004568657e+00 1.4214684874131438e+00 -5 15 15
228 89 3 -4.9971443051244346e-05 -3.7732552857084203e+00 -6.6288161721225816e+00 2.0895030293773056e+00 3 -22 39
288 121 3 -5.2264399891978341e-04 -1.1253597420475647e-01 -6.7744319325045437e+00 1.3396982481175239e+00 -34 11 24
446 204 3 -5.7888327861355116e-04 -1.7794876548319579e+01 -3.4692347932580003e+00 3.8597894065504481e+00 28 3 0
447 204 3 -6.0612829883238684e-04 -1.8490375271846965e+01 -4.3160321676581184e+00 3.3077859640843141e+00 28 3 0
386 172 3 -5.1249031086000874e-04 -1.2490009775791732e+01 -5.5876991588610778e+00 7.8739862647196732e+00 2 -4 9
385 172 3 -1.6760565981439185e-04 -1.1563596116081388e+01 -5.3635710173644808e+00 7.1293057935891264e+00 2 -4 9
389 174 3 -1.7466184986530964e-04 -1.0554305714343023e+01 -5.1135283962621942e+00 6.2628491335380909e+00 17 -4 24
390 174 3 -2.3806535366055481e-04 -9.6909463178188755e+00 -4.9861428503820804e+00 5.4852012120447320e+00 17 -4 24
421 191 3 -1.4791639006866975e-04 -8.6680818850430530e+00 -4.9434777891315242e+00 4.5830430760894192e+00 -2 9 -1
422 191 3 -1.6404058539248867e-04 -7.8286660980154847e+00 -4.9648553928547194e+00 3.7949430452183028e+00 -2 9 -1
298 126 3 -5.3233454441789507e-05 -6.8371153800932465e+00 -4.8634834594856855e+00 2.7064588873400264e+00 -2 -17 12
345 151 3 -2.2477322892409946e-04 -6.7191899950482705e+00 -3.7114804230058964e+00 1.6670143610222947e+00 2 1 2
346 151 3 6.0824845925108728e-05 -6.7694156421843985e+00 -2.7505499548309769e+00 9.7932141693455343e-01 2 1 2
175 62 3 -5.1409391372961299e-04 -6.8612283409914898e+00 -1.7707152661878400e+00 1.1437053289440961e-01 -19 24 28
297 126 3 -1.0973966303998162e-04 -5.9148008622881596e+00 -5.8238941674850002e+00 2.7600452698031543e+00 -2 -17 12
260 106 3 -2.8960082615982555e-04 -6.6011720476727946e+00 -6.0739608032079806e+00 6.7185490324132653e+00 -20 -10 13
259 106 3 -1.0436664706308871e-04 -5.5328039450500066e+00 -5.3139559837515042e+00 6.4215830501597262e+00 -20 -10 13
7 1 1 1.6229103021210903e-04 -3.8506764160633833e-01 -1.1643324995751463e+00 3.3333262511274153e+00 0 0 0
223 87 3 -5.8001588036303564e-04 -3.3118725630183059e+00 -3.8850229120703101e+00 5.8273988344035281e+00 -25 -10 2
27 1 1 6.6500409505310457e-05 -2.8003643787534580e+00 -1.1759754020068431e+00 1.8963973358203738e+00 0 0 0
342 149 3 2.0571023778322844e-04 -2.0215049798857945e+00 -4.4485183695844164e+00 5.2473740986182351e+00 -7 1 12
57 1 1 8.9339837047494597e-05 -3.4502495152714090e+00 -8.1377458838145300e-01 6.8489275513286618e-01 0 0 0
350 153 3 -5.8825305131340877e-04 -6.8546354742021647e+00 -4.7273907811828159e-01 4.0775966923505358e+00 -17 -8 35
128 37 3 1.3432164145255610e-03 -3.2735696805958532e+00 -2.9137935880733584e-01 6.4596454687302751e+00 -36 61 -20
243 97 3 -1.7605138632958622e-02 -2.5826010415658716e+00 -1.5413523650446497e+00 7.2382201451837620e+00 -8 14 -5
349 153 3 3.7417519235523940e-04 -5.8481064459772947e+00 -4.4327095883363160e-01 3.4488691789747636e+00 -17 -8 35
28 1 1 7.1239464470601588e-05 -1.9523924968174715e+00 -2.3172234327645929e+00 1.8632826704592096e+00 0 0 0
224 87 3 -6.4955496711072147e-04 -4.6124487970146220e+00 -4.6688656327799603e+00 6.1759243182289412e+00 -25 -10 2
118 32 3 2.3230559449858995e-03 -1.1101643924297078e+00 -1.6935960112291988e+00 6.6500214746663211e+00 77 58 -11
59 1 1 -1.5450308022764078e-04 -3.6453639234910801e-01 -3.5105249413811817e+00 6.8664212211540065e-01 0 0 0
8 1 1 1.2146310745184130e-04 -7.0637045823389766e-01 -2.3891848739560335e+00 2.5748241006411581e+00 0 0 0
242 97 3 8.2462497509968452e-04 -2.9695598476878686e+00 -2.7963126810484060e+00 6.5291212156020642e+00 -8 14 -5
341 149 3 -7.7374120948811576e-05 -9.7001146565438967e-01 -4.7759977477437170e+00 4.9326256172498564e+00 -7 1 12
119 32 3 -1.4506947820127278e-03 -3.8321302796437931e-02 -1.7530401204188972e+00 6.2664288772474181e+00 77 58 -11
337 147 3 -5.6631715283081419e-04 -1.0809157330593852e+01 -1.3284318388759202e+01 1.1145473397315191e+01 13 3 -12
375 166 3 -7.1646148016304978e-04 -1.4209128274878607e+01 -1.2064111377228558e+01 9.2242132624162831e+00 -10 39 7
415 187 3 -6.7718271181721468e-04 -1.3994076412989639e+01 -8.4326092757296927e+00 1.2669474346563058e+01 0 0 -2
374 166 3 2.1094493141126010e-05 -1.3258684140304815e+01 -1.1313490078420065e+01 8.9870211056422225e+00 -10 39 7
338 147 3 -1.0204838262877630e-04 -9.9315881083994348e+00 -1.2842708031891929e+01 1.0354585069698883e+01 13 3 -12
396 177 3 -2.1812776528726263e-04 -9.1899819626372530e+00 -1.2485113343393669e+01 9.3925767992481468e+00 5 4 -1
414 187 3 -4.0798205496721945e-05 -1.2878703548724932e+01 -8.0381923418193146e+00 1.2248604480906787e+01 0 0 -2
367 162 3 -2.8489465453949980e-04 -1.1660167138529697e+01 -7.6732524140575160e+00 1.1945713641389952e+01 -2 1 -4
366 162 3 -1.1067295479665756e-04 -1.0546820990817924e+01 -7.4982787678632690e+00 1.1428226974803342e+01 -2 1 -4
254 103 3 -1.9095622927282896e-04 -9.3492005902443367e+00 -7.2997110485875076e+00 1.0982817030966570e+01 -7 -4 6
253 103 3 -1.1151902804112934e-04 -8.1411639084616372e+00 -7.1986739051258342e+00 1.0608964929366650e+01 -7 -4 6
240 96 3 -2.8718997473968499e-04 -6.9380458019260089e+00 -7.2601731308101662e+00 1.0225292163202681e+01 31 2 -5
395 177 3 -1.5165118682829160e-04 -8.3565827456405604e+00 -1.2159963953205880e+01 8.5348914051461424e+00 5 4 -1
299 127 3 -1.5503721234135653e-04 -1.2288160360501687e+01 -1.0494122431539081e+01 8.6430360081078330e+00 6 -4 -8
300 127 3 -4.2715861811901817e-05 -1.1292552604478995e+01 -9.8176111056003421e+00 8.1423859396017360e+00 6 -4 -8
67 5 3 -3.1715193752307469e-04 -3.5749724428868417e+00 -7.7790479096591074e+00 8.5736755157727362e+00 21 36 -13
241 96 3 -2.8677706291503624e-04 -5.8409703671781195e+00 -7.5180831261382393e+00 9.7275838998153468e+00 31 2 -5
66 5 3 -3.4262442993217290e-04 -4.6910689413193891e+00 -7.7188008771998158e+00 9.2148042933054395e+00 21 36 -13
420 190 4 2.0642394855764232e-02 -2.8314928743001389e+00 -1.6296720437700332e+00 8.3398602514917233e+00 -10 5 9
354 155 3 -1.4322619145710758e-03 -5.6224121003844507e+00 3.1441623991733079e+00 -1.0021424064518971e+01 -15 -43 26
353 155 3 -1.2147201000335256e-03 -4.7242646345095043e+00 2.4502287972826400e+00 -9.5640139417762651e+00 -15 -43 26
370 164 3 -1.4788822869590129e-03 -3.7146773920903429e+00 1.7175361362150876e+00 -9.0481955763473128e+00 7 12 12
371 164 3 -1.4841246093284938e-03 -2.9349056105240243e+00 1.0280081961666099e+00 -8.5283882951904069e+00 7 12 12
304 129 3 -7.3027869154451697e-04 -1.0499925470201278e+01 3.5272796222254006e+00 -5.7782771976278244e+00 33 -7 -4
303 129 3 -3.0265602322117890e-03 -1.0105587940694702e+01 2.8601537792407039e+00 -4.8816699440671165e+00 33 -7 -4
147 47 4 2.0394394899225787e-02 -6.7198578465559837e+00 1.9603931446024032e+00 -4.1146244324404995e+00 4 -1 -4
159 53 3 4.4589562345137487e-03 -6.4752679082195677e+00 1.0178692172151271e+00 -2.2459857341050520e+00 -27 -24 -13
106 26 3 -1.9555728738175300e-02 -6.2478884979821379e+00 1.9475418593237854e+00 -3.0943280829798310e+00 17 24 0
107 26 3 2.8380401258793556e-03 -5.4421341000197092e+00 3.2058281701642048e+00 -2.6656807013075237e+00 17 24 0
239 95 3 -4.3589227520323751e-03 -4.3644333400759718e+00 3.5122661994506212e+00 -3.4683346682548106e+00 23 -12 6
238 95 3 3.9038917968209630e-03 -3.3364100516409052e+00 3.7920478293864801e+00 -4.2744775892713935e+00 23 -12 6
15 1 1 -1.8660330331115617e-04 -2.0507615888374211e+00 1.2901716892287876e+00 -2.5710915689751603e+00 0 0 0
16 1 1 -1.8869232187692861e-04 -1.1185976459445879e+00 4.8912776817969056e-01 -3.2968425924583555e+00 0 0 0
34 1 1 2.1367277172715769e-04 -1.6070064332360692e+00 2.4211831045050225e+00 -1.8374576512418457e+00 0 0 0
35 1 1 -1.2562522850010499e-04 -2.9856385479349741e+00 5.6766533249847373e-01 -1.7636203627605427e+00 0 0 0
45 1 1 2.0195757369157255e-04 -3.2161607752210446e+00 1.3172054562476361e+00 -5.2891343953399028e-01 0 0 0
56 1 1 1.1530929424473021e-04 -2.3906332496601692e+00 2.4806749154874641e+00 -6.2095929397013228e-01 0 0 0
234 93 3 3.7807312494163303e-04 -1.4024518674917079e+00 5.3234260380311573e+00 -3.3213788932431552e+00 -17 -9 11
235 93 3 -4.9792761789022033e-04 -2.2690426369520860e+00 4.7668269176452522e+00 -3.7522175202182941e+00 -17 -9 11
33 1 1 1.2795344062834293e-04 -2.7026201258273430e-01 2.8022398601636982e+00 -1.8247580358286017e+00 0 0 0
250 101 3 -1.8387170680259218e-03 -1.0884549963075536e+00 3.2176333206435985e+00 -6.8868822301311194e+00 4 15 -25
178 63 3 4.1495924384463249e-03 -2.2269781295312345e+00 3.2431810627878805e+00 -6.2981006816723237e+00 -41 -11 -13
177 63 3 -1.9946022053616341e-02 -3.3746807332712581e+00 3.2573688055660086e+00 -5.7208631820122946e+00 -41 -11 -13
357 157 4 2.1365768190731507e-02 -4.1970513433418786e+00 2.6878721840029787e+00 -6.1683867920790290e+00 -12 1 10
92 18 3 -4.4325841467640625e-04 -5.3369223466391560e+00 3.6421216460712760e+00 -1.2904810111722871e+00 49 46 -53
91 18 3 4.2046661087279114e-04 -5.3459239808251358e+00 3.8536489222644694e+00 -1.6670433478455671e-01 49 46 -53
93 19 3 1.6956363428299870e-05 -1.9281953316483463e-01 6.0659919881109934e+00 -2.7465792177974429e+00 16 17 30
302 128 3 -2.0469252897425266e-04 -2.1359159109732300e+00 7.1818955690806829e+00 3.4757160202591977e+00 27 -32 -18
430 195 3 -7.1677279210596856e-04 -7.7551902308911220e+00 6.5998769726049211e+00 1.7775854203087211e+00 -2 -11 2
169 59 3 -2.1675860083135434e-04 -4.2760438503212752e+00 4.0741752541440341e+00 3.6517419918866074e+00 2 0 3
6 1 2 -6.5049135645402212e-05 -2.4703499999999998e+00 6.8199999999999997e-03 2.6358700000000002e+00 0 0 0
4 1 1 -1.0223606838365845e-04 -7.1070530984815272e-01 2.2782009379238386e+00 2.5940550338820634e+00 0 0 0
179 64 3 -9.6223492901101326e-05 -4.1103744824957733e+00 1.8900049355082547e+00 5.1501360394088866e+00 1 62 13
180 64 3 -1.1132194316247623e-04 -4.2478971140846200e+00 2.7785957500909624e+00 4.5239061394783384e+00 1 62 13
25 1 1 -9.0121591129038378e-05 -1.9565443207819628e+00 2.2846838832390990e+00 1.8351043719793736e+00 0 0 0
26 1 1 1.0892234686320397e-04 -2.8799039736218925e+00 1.1654678096277917e+00 1.9301378194750882e+00 0 0 0
55 1 1 1.8331068703171527e-05 -1.7477315537443463e+00 2.9625410566656289e+00 5.8274654246414215e-01 0 0 0
44 1 1 -1.5993409659905908e-04 -3.7694560909662272e-01 3.3569379854879347e+00 6.3014081832652968e-01 0 0 0
140 43 3 1.3673482194613042e-04 -4.7710282784286262e+00 4.0106686104705576e+00 2.2821028805869732e+00 1 42 -4
139 43 3 -5.7803223253539288e-05 -5.1889913842438329e+00 4.0796614614228712e+00 1.2224702434157115e+00 1 42 -4
3 1 1 -2.8937188737112457e-05 -3.7199555370798959e-01 1.1293956018741347e+00 3.3363807375969512e+00 0 0 0
46 1 1 1.1172873405218900e-04 -3.4002847057605599e+00 6.2904412896585771e-01 6.6546068323627094e-01 0 0 0
5 1 2 3.1992806454037015e-05 -1.2510300000000001e+00 6.0000000000000001e-03 3.3899499999999998e+00 0 0 0
170 59 3 -1.5183641594036790e-04 -3.1593970176915098e+00 4.9140329763630826e+00 3.7216618782190589e+00 2 0 3
173 61 3 -1.5229035026938925e-04 -2.0747061333996362e+00 5.7637922115723548e+00 3.7778887765372091e+00 10 -4 11
127 37 3 -1.4925184259538538e-03 -3.7111583845027640e+00 5.4113103387980477e-01 5.9079081403639870e+00 -36 61 -20
174 61 3 -1.7518251430687082e-04 -6.7940729439947656e-01 5.2342500054482484e+00 4.3513072713880447e+00 10 -4 11
424 192 3 -5.9998769129094090e-05 -1.5719801479741651e+00 6.8965119519730331e+00 2.5719695898919770e-01 -9 -5 8
429 195 3 -6.1495117595473242e-05 -6.5789139278097526e+00 6.8139117412345298e+00 1.4759400281845332e+00 -2 -11 2
255 104 3 -1.5612826516246507e-04 -9.0297044635444593e-02 6.5646540839994980e+00 -2.3158439512025543e-02 41 -5 -11
266 109 3 -1.4546009613469746e-04 -6.4200440116817059e-01 9.7901018206615689e+00 1.5758287265184840e+00 26 -48 55
301 128 3 -1.5304228177102919e-04 -1.9373627862361380e+00 8.3238893686832203e+00 2.9869232731824873e+00 27 -32 -18
265 109 3 -1.4973615714758415e-04 -1.4467918261682575e+00 9.2192174690946711e+00 2.3222148619191110e+00 26 -48 55
418 189 3 -1.5187220084702385e-04 -4.1500921891712066e+00 7.2080611306165538e+00 8.4346527614048905e-01 -5 0 6
423 192 3 -3.6424039611397674e-05 -2.6568271851725211e+00 7.0924126584572251e+00 4.4485254035957733e-01 -9 -5 8
419 189 3 -2.4900225348645222e-04 -5.2528209017117913e+00 7.1135829338850796e+00 1.1102628202731000e+00 -5 0 6
158 53 3 -2.9192277227625130e-03 -6.6505849285909493e+00 1.1847507854763149e-01 -1.4949923658509499e+00 -27 -24 -13
94 19 3 -1.9757609750085947e-05 -6.9327848896434965e-02 6.2997058328998587e+00 -1.4158903085144920e+00 16 17 30
292 123 3 -6.4156887489259795e-04 -2.0012138899373833e+00 2.9625756768907680e-01 -7.9999931194941087e+00 -14 13 34
436 198 3 -7.0921131522563852e-04 -2.8932771182355044e+01 7.9999977490139891e+00 2.8546316391549819e+01 14 -30 23
435 198 3 -1.5464387128605317e-04 -2.9140298088212980e+01 8.8433393973295225e+00 2.9403505896149106e+01 14 -30 23
450 206 3 -1.6835310771363965e-04 -2.9465440262885004e+01 9.7941143578897840e+00 3.0260338323628300e+01 -3 1 16
451 206 3 -7.0354378724832300e-04 -2.9852251754852968e+01 1.0811933505018889e+01 3.0825616116802895e+01 -3 1 16
160 54 3 -5.9781612583947874e-04 -2.4421873084671578e+01 1.8541159548653074e+01 2.6607103317325741e+01 28 -3 63
161 54 3 -5.9995571615392707e-04 -2.4941328439872766e+01 1.9115855358737146e+01 2.7532487134831637e+01 28 -3 63
448 205 3 -6.0255904619957446e-04 -1.5143037910121484e+01 2.0562165139166396e+01 2.5434806915124394e+01 17 -6 -35
443 202 3 -5.9739031038519297e-04 -1.2282312909312123e+01 2.9016847165763544e+01 2.7978045353116329e+01 -2 -1 3
442 202 3 -5.9757319926881380e-04 -1.3158365876309503e+01 2.9799739705101178e+01 2.8162757641214682e+01 -2 -1 3
449 205 3 -6.0024131634167643e-04 -1.6183339646218055e+01 2.0258352150469456e+01 2.4860325098793044e+01 17 -6 -35
379 169 3 -6.0126025932619176e-04 3.1287012529514396e+01 -3.9463878513618234e+01 4.0009542241830056e+00 -14 -24 28
315 135 4 7.1843912058297543e-03 5.1472261865083500e+00 -2.0548906038729015e+01 2.0017937227838075e+01 23 73 11
294 124 4 7.1843912058318915e-03 4.3488225286632112e+00 -2.0345907511781672e+01 2.0042788127350960e+01 67 95 -12
440 200 3 -5.9773009936889276e-04 4.6704754234534329e+00 -3.6550313500764403e+01 3.3952745110714893e+01 3 7 9
439 200 3 -5.9773009936889276e-04 5.2881863485920171e+00 -3.5632688256140476e+01 3.4435449629374837e+01 3 7 9
416 188 3 -6.0103961166310671e-04 2.3456358677993240e+01 -1.6798126898287475e+01 -1.4896319455338020e+01 -18 12 3
417 188 3 -6.0103961166318998e-04 2.3825809964996342e+01 -1.7678959598743152e+01 -1.5662112415692560e+01 -18 12 3
105 25 4 2.1397660589362572e-02 9.0442201477178461e+00 -1.4922835009800126e+01 -2.0780832506679010e+00 35 32 41
103 24 3 -2.0294006200963617e-02 8.2238396653751220e+00 -1.4561935825009657e+01 -1.4466192803620745e+00 -11 -4 48
89 17 3 3.3308259038776974e-03 7.7385981306111287e+00 -1.5186897334545582e+01 -4.0063768647497133e-01 7 34 68
273 113 4 2.2714701551311681e-02 1.1942192839309296e+01 -1.6578954345246803e+01 -2.2398036392173643e-01 -11 7 7
278 116 3 -2.5463158839716366e-02 1.1758721828583914e+01 -1.5565279076715951e+01 -3.2803765848810605e-03 -1 10 1
339 148 3 -5.9490490726829548e-05 1.7145806144086548e+00 -7.7443116745106382e+00 -4.3595555391248295e+00 -30 -13 9
340 148 3 -1.3666684682105135e-04 6.9039216974887829e-01 -8.0957538851583415e+00 -4.0845795066399040e+00 -30 -13 9
264 108 3 6.8260008429452124e-06 4.6138192405509502e+00 -8.1066198314271123e+00 -2.6190659246572823e+00 4 65 -8
263 108 3 1.2437365246215776e-04 4.0434858318498232e+00 -7.6297830517382161e+00 -3.4999192823764202e+00 4 65 -8
122 34 3 1.8061200148259196e-04 5.3334745241807635e+00 -8.6568118016984634e+00 -1.5422443381915281e+00 -16 -26 -10
124 35 3 -3.0988462654558332e-03 5.1465239390790041e+00 -8.2056115559202887e+00 -1.0427350407641617e-01 6 9 14
286 120 3 -3.3524145048140219e-05 3.1634898643755709e+00 -7.1914765515004859e+00 -4.5396373485729402e+00 3 -20 6
123 34 3 -2.0766004854606626e-03 5.9664764877111613e+00 -9.9492053712616091e+00 -1.6949251692913245e+00 -16 -26 -10
104 24 3 2.3160502938444835e-03 7.5990481493317272e+00 -1.3244819363517989e+01 -1.6872842558280585e+00 -11 -4 48
398 178 3 -1.0602583096967766e-03 7.5573925534511126e+00 -1.2595501634935411e+01 -7.4012743115837676e+00 29 -26 36
397 178 3 -1.0583078801892909e-04 7.0471419567184546e+00 -1.1528879012392538e+01 -7.1459748513749446e+00 29 -26 36
129 38 3 -2.2744036419016164e-03 6.4344865193539889e+00 -1.0995038830109085e+01 -1.7563580076764007e+00 -4 -2 -15
130 38 3 -4.8053785623270798e-03 7.1016184678407104e+00 -1.2215110553381479e+01 -1.7697271540909312e+00 -4 -2 -15
441 201 4 2.1304859799390220e-02 8.5327962733576506e+00 -1.0732524031552082e+01 -6.4482339889170126e-02 -9 -5 8
150 49 3 2.5095848880747340e-03 8.5653698968158454e-01 -1.1501460775479520e+00 -7.0206102747072121e+00 -10 -8 12
287 120 3 8.4526246128605043e-05 3.2849877221588271e+00 -5.8862907476743596e+00 -4.9178742897776457e+00 3 -20 6
249 100 3 -1.5971446521492738e-04 3.5245733941772905e+00 -4.6590350245098477e+00 -5.2095643641574414e+00 9 -11 25
248 100 3 2.8050140603762957e-04 3.7907961311696514e+00 -3.3671977005864182e+00 -5.2769859279846241e+00 9 -11 25
19 1 1 6.5923203564615535e-05 6.7289473664629407e-01 -2.4749532011128257e+00 -2.5613792403127680e+00 0 0 0
39 1 1 2.5892819029000452e-05 1.9352855367547677e+00 -2.4489795890328043e+00 -1.9084526242161211e+00 0 0 0
40 1 1 -3.7195633390031679e-06 2.7752637582062341e+00 -1.3068393041616901e+00 -1.8775673624233562e+00 0 0 0
49 1 1 -8.1072778036830884e-06 1.7436705885502266e+00 -3.1151882413914906e+00 -6.1748542593272115e-01 0 0 0
52 1 1 3.1970225075367287e-05 3.3612644357970125e+00 -8.2790320904602666e-01 -6.5560544097322071e-01 0 0 0
60 1 1 -9.9975976465067201e-05 3.7451098391875709e-01 -3.5714067034595280e+00 -5.4672446385193474e-01 0 0 0
20 1 1 1.3224033918098586e-04 2.5950727751799896e-01 -1.3865671942838704e+00 -3.3595801038315796e+00 0 0 0
114 30 3 -1.6086341762645666e-03 4.0467070534045790e+00 -1.9414468079994429e+00 -5.3821218265770030e+00 33 31 -26
109 27 3 3.2189171968277294e-03 3.1328072959008391e+00 -1.3898538297210590e+00 -6.2578226683679894e+00 38 29 -51
368 163 3 -2.4309770572345651e-05 4.8161390233673416e+00 -4.8373867031269624e+00 -1.9411489095430399e+00 -6 25 11
369 163 3 1.5642148199386183e-04 3.9399456502858117e+00 -5.3157264103815418e+00 -1.2974898182284880e+00 -6 25 11
362 160 3 -2.8369755822438281e-04 2.9556305905991631e+00 -5.7901599114347295e+00 -6.4346379213615745e-01 16 -3 4
406 183 3 1.8241302917714960e-04 5.7803272542024402e+00 -4.1831068719591133e+00 -2.4982104168882828e+00 0 0 -1
115 30 3 -2.2098296108444965e-04 4.8029912116678313e+00 -1.0188667872965309e+00 -4.3601950416020188e+00 33 31 -26
108 27 3 -1.9545729213146582e-02 2.2405029239623251e+00 -7.6010687296029500e-01 -7.1399858270478038e+00 38 29 -51
149 48 3 -1.7424308258221638e-04 5.3893753625766276e+00 -3.9038227437734790e-01 -3.6679519644704133e+00 16 -1 -10
363 160 3 -6.7057269690029564e-04 2.0017935279451242e+00 -6.1689320239473888e+00 -5.0447963194410639e-02 16 -3 4
12 1 1 -2.5560445180181426e-04 1.0939924296827961e+00 -2.3015121460401305e-01 -3.3000739212178600e+00 0 0 0
407 183 3 -2.8216287826239583e-05 6.7832524790435347e+00 -3.5236406820480966e+00 -2.9102428375359342e+00 0 0 -1
343 150 3 -3.1051620333211183e-04 7.4162803132017743e+00 -6.1889958601665320e+00 -5.6624366532640558e+00 5 26 54
344 150 3 -4.0789338148927712e-04 6.8264774931902430e+00 -5.5231667321632640e+00 -6.4953646151111322e+00 5 26 54
233 92 3 -1.4815463812615365e-04 1.1417341201693931e+01 -1.1605108048671697e+00 -1.2118185484375350e+00 6 5 -4
434 197 3 -1.3686476577566553e-04 7.8220872901954488e+00 -2.8404559266264320e+00 -3.4767167595827888e+00 6 8 -2
433 197 3 -1.6721250754404143e-04 8.5806921805219911e+00 -2.0577057227779627e+00 -3.8463808917090754e+00 6 8 -2
305 130 3 -2.0407005547579127e-04 1.0629795044691638e+01 -8.5150125733976334e-01 -3.5256452066107515e+00 4 1 0
82 13 3 -8.3372268071452149e-05 1.1129317110474238e+01 -1.4596367229631648e+00 -7.5901823164422233e-02 -29 16 -45
232 92 3 -1.4295319188003391e-04 1.1654573428103200e+01 -8.2725582101760764e-01 -2.6338449864170053e+00 6 5 -4
306 130 3 -1.1413688353190815e-04 9.5927109031068483e+00 -9.5172574400422594e-01 -4.3605547431022122e+00 4 1 0
87 16 3 -5.4855508215066739e-04 1.3929165696186237e+01 -3.8559986670264732e+00 6.6040783281533322e-01 -13 24 -2
225 88 3 6.7761342575120564e-05 1.3070776520599631e+01 -4.6216569404640961e-01 -3.1566632555263019e+00 -12 -21 -6
205 77 3 -1.4723493124512571e-04 7.0660547872258359e+00 -3.7650018922311061e-02 -3.2725487662451197e-01 -21 -1 -7
79 11 3 -2.1314967332593332e-02 1.7580137997277664e+01 -1.1755837565450658e+00 -1.5102001107319554e+00 58 -6 10
78 11 3 8.1314990486449218e-03 1.6787547878750559e+01 -1.8499047154392019e+00 -1.0390752343155596e+00 58 -6 10
80 12 3 -3.3702391310027335e-03 1.5830349749630052e+01 -2.6661263109988749e+00 -4.2123821403407957e-01 63 -7 19
84 14 4 2.1751642464184831e-02 1.8381775008261823e+01 -4.5436150631995059e-01 -1.8621276050880939e+00 46 -22 31
226 88 3 -3.4352854509660247e-04 1.4104763601231816e+01 -2.1436848546836840e-01 -3.5012848622489661e+00 -12 -21 -6
120 33 3 -7.5658291429664404e-05 7.4052365941368903e-01 -1.4945744322536926e+01 3.4126695922340526e+00 38 -26 7
121 33 3 -8.8933297606209882e-05 1.9572060589555784e+00 -1.4376109038536141e+01 4.2463939083240154e+00 38 -26 7
110 28 3 -1.6750829376564746e-04 3.3527476874711017e+00 -1.4557099170353265e+01 3.5799492709849603e+00 24 25 9
111 28 3 2.9167332534532631e-04 4.3564318484913507e+00 -1.4543656345402010e+01 3.0870287645113108e+00 24 25 9
70 7 3 5.6033704533743622e-04 6.3925212455815510e+00 -1.5056903275582444e+01 1.5156691766872901e+00 56 33 16