LAMMPS data file via write_data, version 3 Mar 2020, timestep = 10000000

102 atoms
4 atom types

-4.0000000000000000e+01 4.0000000000000000e+01 xlo xhi
-4.0000000000000000e+01 4.0000000000000000e+01 ylo yhi
-4.0000000000000000e+01 4.0000000000000000e+01 zlo zhi

Masses

1 12.0107
2 12.0107
3 12.0107
4 1.00794

Atoms # full

70 7 3 -2.8227845554865127e-04 -4.3806015999749155e+00 -3.0099508980518063e+01 -2.0532435344028908e+01 23 -3 -4
71 7 3 -2.8227845554756881e-04 -4.4165937922813576e+00 -3.1271457203995457e+01 -2.0217795797726904e+01 23 -3 -4
75 9 3 -2.7949454195005941e-04 -3.0090961382629338e+01 -3.0925665055451816e+01 -2.2428853856158967e-01 37 -16 -11
74 9 3 -2.7949454195086432e-04 -3.0631259028728579e+01 -3.1465316527607012e+01 6.9651084571678235e-01 37 -16 -11
101 23 3 -2.8160355635620249e-04 -3.5677386381209800e+01 -3.7451876619081077e+01 3.8679082437197096e+01 34 -2 -37
102 23 3 -2.8160355635592493e-04 -3.6078584885760769e+01 -3.6586932598174130e+01 3.7959239340099849e+01 34 -2 -37
86 15 3 -2.8716832506955892e-04 -2.9828445516860835e+00 -4.6976360736364011e+00 -3.7140158320015097e+01 13 -12 -8
85 15 3 -2.8716832506253676e-04 -2.1124523893133191e+00 -3.7373099115500588e+00 -3.7036736121491522e+01 13 -12 -8
98 21 3 -2.8450848304806264e-04 -2.2684970070014895e+01 -6.0419560660079386e+00 -9.2848852143659077e-01 8 -13 14
17 1 1 -1.2076514294738494e-04 -2.0612575417764258e+00 -1.3263113600973935e+00 -2.5910858883787133e+00 0 0 0
18 1 1 -2.4078765740002950e-06 -1.1259265452524272e+00 -6.7052511228286238e-01 -3.3080811683381688e+00 0 0 0
36 1 1 1.0629055458176093e-06 -2.9573901161670393e+00 -6.3502934781090614e-01 -1.7755607015219288e+00 0 0 0
37 1 1 3.2034793310466159e-05 -1.6027864097148039e+00 -2.4342467118499478e+00 -1.8677202343951083e+00 0 0 0
47 1 1 -2.5827814596576792e-05 -2.3168135561636287e+00 -2.4017169764597495e+00 -6.0871894533908533e-01 0 0 0
58 1 1 -7.9891196915503337e-05 -3.1896016647230776e+00 -1.3281061124595359e+00 -5.5113341523595383e-01 0 0 0
38 1 1 -1.2476686162433276e-04 -3.2849907381164839e-01 -3.0244182483790487e+00 -1.8848389063263349e+00 0 0 0
92 18 3 -2.8442136427425657e-04 -9.5504415571506183e+00 -1.6470779500583948e+01 7.9759200438032236e+00 31 7 -14
97 21 3 -2.8450848304806264e-04 -2.3303067739267266e+01 -6.2203818593964684e+00 1.4331038063832421e-01 8 -13 14
28 1 1 2.4215136086400135e-05 -2.0156248513481576e+00 -2.2873716620685203e+00 1.9434958008000418e+00 0 0 0
7 1 1 -3.6350656042936219e-05 -3.8094070907200728e-01 -1.1516972786586603e+00 3.3383487523513398e+00 0 0 0
8 1 1 -3.3473340809428431e-05 -7.4276586818497903e-01 -2.3452889833197372e+00 2.6323325762626646e+00 0 0 0
27 1 1 -1.1785219572200967e-04 -2.8779031267994823e+00 -1.1444558916546412e+00 1.9271700050741287e+00 0 0 0
48 1 1 -7.5119548491431321e-05 -1.7885149622905236e+00 -2.8888620138572567e+00 6.1091005986877800e-01 0 0 0
57 1 1 -2.0434212153613851e-05 -3.4622035719891220e+00 -7.1224938077677902e-01 6.7842421783660445e-01 0 0 0
59 1 1 -1.5474709290583949e-04 -4.4451690463194449e-01 -3.4653591111775097e+00 6.4326679001609965e-01 0 0 0
91 18 3 -2.8442136427539455e-04 -8.9546295487615453e+00 -1.7137858791856832e+01 8.8460730200072106e+00 31 7 -14
78 11 3 9.1704672769061663e-03 -3.8896437759661349e+00 -1.4536848065456683e+01 2.2285715042739952e+01 31 14 6
79 11 3 -2.4034499472218016e-02 -3.1475378861934886e+00 -1.3705378170943515e+01 2.1968916987244633e+01 31 14 6
80 12 3 -3.6504806010692892e-03 -4.7279742083960530e+00 -1.5528156556591755e+01 2.2564183836762194e+01 36 13 15
81 12 3 1.0015488759104740e-03 -5.3374312630552767e+00 -1.6502417857105851e+01 2.2987318847654457e+01 36 13 15
84 14 4 2.3294277447445250e-02 -2.4635972879154289e+00 -1.2994209513200902e+01 2.1608221731153119e+01 19 -2 27
62 2 3 -2.8192831059944967e-04 -1.0080983680328325e+01 7.9755808238057684e+00 -1.7973698464796609e+01 25 -3 47
61 2 3 -2.8192831059944967e-04 -1.0038234162759975e+01 6.7744966090720542e+00 -1.8106369732129167e+01 25 -3 47
15 1 1 -4.0125063350340828e-06 -2.1042655364530383e+00 1.4960430449003159e+00 -2.5122379906082015e+00 0 0 0
16 1 1 -8.0956367863187911e-05 -1.1149608821567336e+00 7.8025473582218452e-01 -3.2660109552944214e+00 0 0 0
34 1 1 -2.5616769573084952e-05 -1.6361308056474253e+00 2.6040011637369438e+00 -1.7187900954668993e+00 0 0 0
35 1 1 -8.2472472274219832e-05 -3.1469338785482237e+00 8.1189297696541918e-01 -1.7833660056792477e+00 0 0 0
45 1 1 -7.5527585690442905e-05 -3.1992320890972463e+00 1.5004662952231860e+00 -4.8060428057509536e-01 0 0 0
56 1 1 -5.9847743299527856e-05 -2.3408182481934774e+00 2.6083598999454427e+00 -5.4190471831734255e-01 0 0 0
33 1 1 -3.8170714466337352e-05 -3.0540060011587850e-01 3.0350177276037287e+00 -1.7430750832631954e+00 0 0 0
25 1 1 2.7977286903523718e-05 -1.8308441392769041e+00 2.2249435918191893e+00 1.8962442678410822e+00 0 0 0
26 1 1 -7.1065113464247043e-05 -2.7849530155204869e+00 1.1406874432407816e+00 1.9019010366950941e+00 0 0 0
5 1 2 -1.3404479519285584e-04 -1.2510300000000001e+00 6.0000000000000001e-03 3.3899499999999998e+00 0 0 0
44 1 1 -9.7558064157919622e-05 -3.4488291344890082e-01 3.5784913512491139e+00 6.5713326088085056e-01 0 0 0
46 1 1 -4.2587990838054146e-05 -3.4474930199660245e+00 7.2822431524322717e-01 7.1679629301446224e-01 0 0 0
6 1 2 9.9019713754380789e-06 -2.4703499999999998e+00 6.8199999999999997e-03 2.6358700000000002e+00 0 0 0
55 1 1 -4.2672441807667383e-05 -1.6912465268567536e+00 3.0020333449850529e+00 7.1579770024961853e-01 0 0 0
3 1 1 -1.2924221735877151e-07 -3.4096851703233655e-01 1.1035280869973185e+00 3.4048611882642512e+00 0 0 0
4 1 1 -9.6909766542585540e-05 -6.3389093629587367e-01 2.3023117935124837e+00 2.6670225947087283e+00 0 0 0
99 22 3 -2.8198460011968907e-04 -2.9544973962529447e+01 2.0283389191119308e+01 -1.9926026229097342e+01 -7 12 -8
100 22 3 -2.8198460011968907e-04 -3.0639555330358242e+01 2.0187054711916403e+01 -2.0429009129832597e+01 -7 12 -8
90 17 3 -2.8219953148833632e-04 -2.9892862109642472e+01 2.6211865410519206e+01 1.9831391374422302e-01 -13 13 17
89 17 3 -2.8219953148864163e-04 -2.8895139044718125e+01 2.6771138298182482e+01 5.9980817978345347e-01 -13 13 17
68 6 3 -2.8171039963656441e-04 -2.7276760555334896e+01 3.5484187678229446e+01 2.5857170109062086e+01 2 -11 5
69 6 3 -2.8492737911711696e-04 -2.8380451689683202e+01 3.5963892027570985e+01 2.5587714652925850e+01 2 -11 5
93 19 3 -2.8383319045621747e-04 -2.4435405523414026e+01 3.1438255607803988e+01 3.2409433976874759e+01 -4 2 10
94 19 3 -2.8588907448146017e-04 -2.3935373729399096e+01 3.2245484705729368e+01 3.3238693813883764e+01 -4 2 10
87 16 3 -2.7910495170307970e-04 3.0998143854283356e+01 -2.9692217199720297e+01 -1.7371123050118587e+01 -8 2 10
88 16 3 -2.7910495170405114e-04 2.9882202232192000e+01 -2.9189321793517340e+01 -1.7513167514842991e+01 -8 2 10
96 20 3 -2.8612608801084627e-04 3.3049505840996943e+01 -2.5526730410088650e+01 -2.1726126904351255e+00 7 -5 -5
95 20 3 -2.8612608800931971e-04 3.2091882531061458e+01 -2.5057871310697077e+01 -1.5133188574917993e+00 7 -5 -5
64 4 3 -2.8278610349363742e-04 6.3032767468730393e+00 -2.9523091534958912e+01 3.7994828459782475e+01 23 24 16
65 4 3 -2.8278610349136146e-04 6.9684185102713432e+00 -3.0305192888063328e+01 3.7345941286697823e+01 23 24 16
19 1 1 -5.0277883447545635e-05 6.5280736840953824e-01 -2.3197711670345198e+00 -2.6474522743420938e+00 0 0 0
39 1 1 -6.2735830526818720e-06 1.7842858933011754e+00 -2.2302305591716447e+00 -1.7981597445943449e+00 0 0 0
40 1 1 -5.0124391724352957e-05 2.6202131774922286e+00 -1.1505285876553477e+00 -1.7745539462013151e+00 0 0 0
49 1 1 -8.9442196551332842e-05 1.5916801636238533e+00 -2.9615022182384347e+00 -6.0288532513958770e-01 0 0 0
52 1 1 -5.6771766481420599e-05 3.2349623697476675e+00 -6.4292552886430443e-01 -6.1140209579364568e-01 0 0 0
60 1 1 4.6489793271181634e-05 2.8402779808607898e-01 -3.4553618250832452e+00 -6.2312940348069512e-01 0 0 0
20 1 1 -4.8875393813249679e-05 2.3010308121285511e-01 -1.1274766146153774e+00 -3.3565843129604604e+00 0 0 0
21 1 1 -5.5719438253484799e-05 2.9228233665053991e+00 -7.1978016103466835e-01 1.8802965216516745e+00 0 0 0
50 1 1 -1.8839303310053818e-05 2.2325051295620488e+00 -2.5396220098101208e+00 5.5378539097236745e-01 0 0 0
51 1 1 -4.2981717155110566e-05 3.0308887696538234e+00 -1.3610410741446581e+00 6.0753181910736742e-01 0 0 0
29 1 2 2.5773898810796392e-05 2.4848000000000001e-01 -3.0825000000000000e+00 1.8628700000000000e+00 0 0 0
9 1 1 -7.2925135168624283e-05 1.0107309345319702e+00 -6.9444141925622815e-01 3.2983542135118560e+00 0 0 0
10 1 1 -7.3449713656748017e-06 1.9963865058644807e+00 -1.5262541115246491e+00 2.6438459051443015e+00 0 0 0
30 1 1 -1.2716683375189886e-04 1.6212311849595493e+00 -2.6497345314705649e+00 1.8445003710613537e+00 0 0 0
66 5 3 -4.2871605885641539e-04 1.2550134653309357e+01 -7.7933532693082286e-01 1.0428096263778215e+01 18 1 -11
67 5 3 6.1601697276335299e-05 1.3157911684416900e+01 -9.6965040212920905e-01 1.1473003233744393e+01 18 1 -11
76 10 3 -2.1172696661476281e-04 1.3860682297313257e+01 -1.4308578394487510e+00 1.2504110744593243e+01 28 -24 35
77 10 3 -2.2717127165200468e-04 1.4445309577368519e+01 -1.8066303744657275e+00 1.3465998024719177e+01 28 -24 35
83 13 3 -2.8479609528297978e-04 1.2794094213979585e+01 8.9221385149471033e-01 -3.9476156795934877e+01 -6 -7 14
13 1 1 -2.7345160657780282e-05 6.8818315321870815e-01 2.3453435484247311e+00 -2.5284530235941243e+00 0 0 0
14 1 1 -6.4680275536813103e-05 2.7846275703323603e-01 1.2216576441440183e+00 -3.3037183098309777e+00 0 0 0
31 1 1 -1.4051955977381972e-04 2.6974924350401661e+00 1.2093583924259637e+00 -1.8226541665462510e+00 0 0 0
32 1 1 5.7193566297034093e-05 1.8994134854980920e+00 2.4261552133817919e+00 -1.8256319078872738e+00 0 0 0
41 1 1 1.9369664334710490e-05 3.3494107531930162e+00 8.0128021218851631e-01 -6.2441442151161386e-01 0 0 0
43 1 1 -1.4094450105184980e-05 3.4447088913323393e-01 3.4931401860911362e+00 -5.5072958184880316e-01 0 0 0
54 1 1 -2.1272207035726715e-04 1.7054449376719791e+00 3.1641965456932075e+00 -5.8510533339108173e-01 0 0 0
11 1 1 -3.2125468171009808e-05 2.2996526850022097e+00 4.5640908071265295e-03 -2.5589725098914293e+00 0 0 0
24 1 2 3.9904383866591620e-06 2.5366000000000000e-01 3.0918600000000001e+00 1.8623700000000001e+00 0 0 0
2 1 1 -6.7304659626454821e-05 1.9697877535536334e+00 1.4752337696283886e+00 2.6516081803283127e+00 0 0 0
1 1 1 -4.3563192593444600e-05 1.0203492321756755e+00 6.9909687890755690e-01 3.3436540330889790e+00 0 0 0
23 1 1 -8.1836941283025544e-05 1.6121345689725515e+00 2.6295298260711237e+00 1.8709816754830779e+00 0 0 0
53 1 1 7.6450693230506461e-05 2.3137772631386975e+00 2.6217153207584296e+00 6.3669419766647906e-01 0 0 0
22 1 1 1.7924844600981926e-05 2.8302883031766450e+00 7.1924467235015643e-01 1.8395352777698712e+00 0 0 0
42 1 1 -1.4133028355774180e-04 3.0994573534629875e+00 1.4461810921966640e+00 5.8368168170316403e-01 0 0 0
12 1 1 -5.7657503091890216e-05 1.0677898571885245e+00 3.7803159239960533e-02 -3.3301232915996755e+00 0 0 0
72 8 3 -2.1740036921925124e-02 2.5734528328676099e+01 1.1785473184113687e+01 2.5074277283046701e+01 -13 -24 9
63 3 4 2.2535432325965693e-02 2.4801420398450244e+01 1.1276966373228495e+01 2.5074762422997143e+01 3 -50 16
73 8 3 5.5332092255851451e-03 2.6776989762177202e+01 1.2427805319982715e+01 2.4908702022837556e+01 -13 -24 9
82 13 3 -2.8479609528506145e-04 1.2600622552558782e+01 1.2672256689107912e+00 3.9345245701864428e+01 -6 -7 13

Velocities

70 2.4896532664492230e-03 -4.1337728931018728e-03 -1.0573732186041818e-03
71 -4.5672074311645964e-03 -2.4191574422936964e-03 5.6497260298634475e-03
75 4.8371916067626863e-03 -1.6117592211449413e-03 -2.1456121601762948e-03
74 7.6042957562764014e-03 4.1777190684355774e-03 -2.5018011849222430e-03
101 -1.0699092183051326e-03 5.5254277927353898e-04 -3.8827871881959813e-03
102 1.7980168907733848e-04 3.0978331577758483e-03 8.8182461073641090e-03
86 -2.7864605463325844e-03 2.7071116544619745e-03 4.8917980513356763e-03
85 -1.0034437512651241e-04 -1.1711523879525470e-03 2.4602958693915045e-03
98 -3.3892000860436147e-03 -9.1959792013655266e-03 -4.2608832077450584e-04
17 3.1602577173017077e-03 4.5427786438664401e-03 -2.2323306348298430e-03
18 -1.3112090501974868e-03 6.0982160083526407e-03 4.1533087108538312e-03
36 2.0610040517463272e-03 1.9728221429262992e-03 -5.9659034486927564e-03
37 -3.1967951268941550e-03 -1.3376015507594880e-03 7.5825725520822286e-04
47 6.6820937802706173e-03 6.9282683492237944e-03 5.3632512642662845e-03
58 5.6361020304384153e-03 1.0951716405830040e-03 5.0908160541807785e-03
38 5.8107494195429657e-04 -1.0455999130037801e-03 1.9394325811218824e-03
92 7.3558971380243941e-03 -9.1640245418592593e-04 6.0121009413005915e-03
97 -3.1920716564727016e-03 -1.4243312379708475e-03 -3.7746153544058669e-03
28 6.2009537560638187e-03 -1.3591165662160491e-04 -2.4898828179153597e-03
7 1.8978637870215220e-03 -8.0272959784379863e-04 3.6192900179031896e-03
8 2.4314418528106445e-03 9.6887177002718851e-03 -4.4606297807343693e-03
27 8.1946409725560925e-03 -4.3660022878652567e-03 3.0561526331241060e-03
48 4.0697287825324788e-03 -1.4334409853050264e-03 2.0837664724756054e-03
57 1.0269842336171893e-03 -5.1619952298634728e-03 -7.5351917804434253e-04
59 -2.0690296198909086e-03 -3.8807505561873649e-03 -5.1452950098860349e-03
91 -4.5281756561339386e-03 8.4515775403886002e-03 2.8481302865674372e-03
78 9.2054833400578634e-04 -6.0121693523269056e-04 -3.5170669467552945e-03
79 1.0078697560403875e-02 3.7637930216852756e-03 3.0350761255068920e-03
80 -1.7797273594050856e-03 1.4102598536556330e-03 6.5839707022550299e-03
81 4.1629280810163479e-03 4.1749411739908501e-03 -2.9302778116574594e-03
84 1.7919902595615454e-02 -3.2309181671549424e-03 7.4936542456453025e-03
62 2.6116037704325895e-04 -4.0100295449752683e-04 -8.5601867842792310e-03
61 5.7066678376540350e-03 8.6236905004751429e-04 9.1417450583540123e-03
15 1.4076237288665955e-03 6.3798961093921944e-03 -5.6729993786486669e-03
16 -2.2107638976450205e-03 6.5035327581916308e-04 3.1511479506496874e-03
34 -4.7271948748982212e-03 5.5533267951233482e-03 8.8973295158409019e-03
35 4.9797547124938468e-04 -3.9996234778614638e-03 -4.0491655075749304e-03
45 -8.3055524980581927e-03 -8.0039800217522484e-03 -1.8777771434903246e-03
56 -2.0757768657939453e-03 6.0585174644875363e-03 4.6987443960396277e-03
33 2.6694683532452698e-03 8.4419968856875565e-03 4.5590658561500399e-03
25 8.7039617968503891e-03 1.9314653269928617e-03 -4.4629403493452215e-03
26 -1.4140864829609069e-03 -8.3873015482039616e-05 3.3328198112261105e-03
5 0.0000000000000000e+00 0.0000000000000000e+00 0.0000000000000000e+00
44 -2.3570929937559823e-03 5.3691551989976955e-03 -2.0240807983780106e-03
46 3.7516319535689418e-03 1.4211567628966350e-03 1.6932089565068152e-03
6 0.0000000000000000e+00 0.0000000000000000e+00 0.0000000000000000e+00
55 2.4201364355197347e-03 4.5433238347291436e-03 -1.8768788848945973e-03
3 1.5201320384714741e-04 -1.3954740393581032e-03 1.2910307919480571e-03
4 -5.9583161440599169e-04 -1.7666366590160950e-03 4.5451905707024216e-04
99 4.0848329874216150e-03 8.4013823945472117e-04 4.3380495492573336e-04
100 4.6278443922644942e-03 7.4556786429769342e-03 -1.1696845445709320e-03
90 -1.4207372252402553e-03 2.0561578431939737e-03 3.3105329260021722e-03
89 -5.3168827515077922e-04 -2.7482008264348057e-03 -5.1652886891053438e-04
68 -3.3991136473306323e-03 1.0667460437380392e-03 3.7775110452741368e-03
69 1.9592123956887770e-03 1.1453505544402607e-03 4.7865924366420984e-03
93 -4.9367330993976841e-03 4.0807303965329595e-03 -1.5825215523517320e-03
94 -7.8604243049509685e-03 8.1628567403619094e-04 1.5829345822177129e-03
87 -1.2335600614924147e-02 1.6556896446508083e-03 -6.1522380216043919e-03
88 1.0378789948107502e-02 -4.3003042879643950e-03 2.3767146922091505e-03
96 6.0079023793571402e-03 -5.0705281436945844e-03 2.6238764533657614e-03
95 -3.7328280949021990e-03 -1.3103088953304882e-03 -1.4525772981160321e-03
64 1.7193684900913410e-03 7.0967837254224168e-04 -1.3128322093850057e-03
65 6.8355598584646463e-03 3.5537415246715499e-04 1.8382205973383611e-05
19 -4.8828829726334129e-03 5.6128820830766318e-04 -5.7726655862008021e-03
39 -6.1295388498871020e-03 7.8985934736496097e-03 -3.8198262019682834e-03
40 -1.8811654988105221e-03 3.0148632421227103e-03 -4.4716342593472749e-03
49 4.0277006088463843e-03 -4.5725954730853500e-03 -5.4120221989092205e-03
52 -5.3737856916629776e-03 1.7202081653274561e-03 1.0026828401312513e-02
60 5.4207709279373182e-03 3.2478276833220756e-03 3.1067197592248442e-04
20 9.8098191649521166e-04 1.9358598097910630e-03 5.4685276632476902e-03
21 -8.1288020400430306e-03 4.5620438693771701e-03 -4.4839962172186065e-03
50 1.0929031769510750e-03 -1.0647076987246274e-03 3.3649251847634124e-03
51 1.0361487325896406e-03 -2.9232003095831793e-03 7.7608102428630560e-03
29 0.0000000000000000e+00 0.0000000000000000e+00 0.0000000000000000e+00
9 -5.6424865279216304e-03 -1.3832026716343753e-03 -6.7754400477641470e-04
10 -4.0562552146429813e-03 -1.2874667622210807e-04 2.5124767696304627e-03
30 -4.8984387768025621e-03 1.9546870831941769e-03 -3.4970394301457540e-03
66 1.1292089045872357e-03 9.5347678242366655e-05 -5.3789932307516958e-03
67 3.7834492196884922e-03 2.9077641489653012e-03 -4.3733306333507416e-03
76 -8.4214265160056957e-03 -6.5818216287296524e-03 -3.0450552161341007e-03
77 1.9512480594735963e-04 -8.9161312238472418e-03 -1.1308184834599806e-03
83 6.3539906643201227e-03 7.9123162384096262e-03 -3.6985081360030856e-03
13 6.5610424670782335e-05 9.3352026780791891e-03 5.4853052112901314e-03
14 -2.7671131640463813e-04 6.1806203269126839e-03 -3.8550455827747162e-03
31 7.2662745784967259e-03 -3.7448867531696497e-03 -2.3697280141669950e-03
32 2.0193150978419800e-03 -2.3667735046105441e-04 -7.8909710926188361e-04
41 1.0237256902129498e-02 -2.8121266662682106e-03 5.7925882321221986e-03
43 1.1770375074538293e-03 -1.0717880477141965e-03 -1.8590915614616315e-03
54 1.6689022679933834e-03 -4.6712345999312026e-03 -2.4858580322518614e-03
11 -3.1962473655742958e-03 -3.1091231566574701e-03 1.0671884796161189e-03
24 0.0000000000000000e+00 0.0000000000000000e+00 0.0000000000000000e+00
2 3.8000731155141848e-04 -2.2740550692520391e-03 7.5769259232798813e-03
1 9.6159780416994549e-04 -2.2221575232273835e-03 -3.9847142740765930e-04
23 -2.8755206078757249e-03 3.4778320590369508e-03 -4.0467466583542821e-03
53 -4.6259706732097441e-03 1.5634505526457803e-03 -1.1140011594098277e-03
22 7.0754662543432833e-04 -3.6997712610666962e-03 -2.5547498807355143e-03
42 5.0529829478644046e-06 2.5861199336415833e-03 1.9175108589112584e-03
12 4.0485662427391014e-03 6.1756066117979744e-03 -3.2084733927604503e-03
72 4.0522207223631767e-03 -1.5567376911476256e-03 2.6714919675370555e-03
63 2.4259357560175880e-02 1.0973720946473902e-02 2.3232639435463755e-02
73 -8.6008121411653728e-04 -3.0762674943023327e-03 6.3016193553028623e-04
82 -5.2669414028651143e-03 -2.6237165488439940e-03 8.5739902420677253e-03
