LAMMPS data file via write_data, version 3 Mar 2020, timestep = 10000000

375 atoms
4 atom types

-4.0000000000000000e+01 4.0000000000000000e+01 xlo xhi
-4.0000000000000000e+01 4.0000000000000000e+01 ylo yhi
-4.0000000000000000e+01 4.0000000000000000e+01 zlo zhi

Masses

1 12.0107
2 12.0107
3 12.0107
4 1.00794

Atoms # full

338 147 3 -6.7959382800450441e-04 -9.2798062668456662e+00 -2.8703745195678056e+01 -2.6306050792520953e+01 9 2 4
337 147 3 -6.7959382800408807e-04 -1.0242044187100520e+01 -2.8953817182263837e+01 -2.6997295702611108e+01 9 2 4
79 11 3 -2.3871925526934429e-02 -3.5842481904783656e+00 -2.0369644831884301e+01 7.7623531579316936e+00 58 -6 10
84 14 4 2.2201419509003034e-02 -3.7397338170528580e+00 -2.1439754212821111e+01 7.8016911177167731e+00 46 -22 31
325 140 3 -6.7865635797431656e-04 -6.8791677965868763e+00 -2.1653171979573440e+01 2.2997369406302060e+01 -10 -2 5
324 140 3 -6.7865635797412227e-04 -6.2658599425546706e+00 -2.1202577938288485e+01 2.3932521796700673e+01 -10 -2 5
156 52 3 -6.7921265161813293e-04 -1.5894123828253836e+01 -3.0133342266872070e+01 2.9597661373488769e+01 -111 -16 6
157 52 3 -6.7921265161596800e-04 -1.6472273123400790e+01 -2.9509354313838259e+01 2.8738773813099986e+01 -111 -16 6
371 164 3 -6.7972546937458689e-04 -1.9086279523653143e+01 -8.2572129938853323e+00 -2.4748604238280624e+01 -10 8 23
370 164 3 -6.7972546937458689e-04 -1.9258099049778131e+01 -9.3328120337992964e+00 -2.5279205851962089e+01 -10 8 23
357 157 4 2.1107761066907094e-02 -5.3287301049133529e+00 -5.2189568552849930e-01 -9.6123185173524295e+00 -12 1 10
238 95 3 4.0886877188679935e-03 -3.1029256241234742e+00 -5.0329921565473468e-01 -9.0690655014600239e+00 23 -12 6
177 63 3 -2.0519723304785069e-02 -4.5113107712465563e+00 -1.0092008041365050e+00 -9.0746036076476937e+00 -41 -11 -13
235 93 3 -3.0056625018700517e-04 -2.0424769888524135e+00 -1.1981837069886925e+00 -8.2728133953092495e+00 -17 -9 11
178 63 3 3.9221280322931443e-03 -4.6382909435881556e+00 -2.0365325546474620e+00 -8.2614183899438132e+00 -41 -11 -13
280 117 3 -2.7012488546733493e-04 -4.1670285035488419e+00 -9.4396802882504733e+00 -1.5830795218462543e+00 3 -7 -6
281 117 3 -1.6318927474730238e-04 -4.4373951577777353e+00 -8.7028360052422471e+00 -2.5431014480848324e+00 3 -7 -6
193 71 3 -3.1491702280246614e-04 -4.7261298063651642e+00 -7.9020943448463008e+00 -3.5054249494466037e+00 3 -22 22
192 71 3 -2.2989812772038209e-04 -4.8590107657532497e+00 -6.9513724847521843e+00 -4.2919964191753746e+00 3 -22 22
333 144 3 1.2837290734965534e-05 -9.0338840031522716e-01 -7.3497785739176305e+00 -5.9790570339738904e+00 -1 -1 -1
296 125 3 -2.3174614359040141e-04 -1.3653409434067216e+00 -7.0650933280428454e+00 -4.6335253918432837e+00 18 -1 -16
332 144 3 -3.7814109420049313e-04 -3.3579909050763002e-01 -7.5119040311415448e+00 -6.9510962807469889e+00 -1 -1 -1
295 125 3 3.3206473411102888e-05 -1.6686389844237655e+00 -6.7264624307600309e+00 -3.5873488651669909e+00 18 -1 -16
267 110 3 -2.0980344896488756e-04 -3.9565883747736041e+00 -9.9998582540957308e+00 -5.2542477136257992e-01 7 -37 -16
204 77 3 -7.9869351847609849e-05 -1.6443792907172803e+00 -6.6224336845258049e+00 -1.1659980053937122e+00 -21 -1 -7
126 36 4 2.1777797889349096e-02 -7.0905316022488964e+00 -2.3383842724373283e+00 -4.5004198800090629e+00 14 44 -22
148 48 3 6.8705638801699540e-06 -2.2455324142780313e+00 -6.3549644254772462e+00 -2.2771921343403712e+00 16 -1 -10
108 27 3 -2.0283443678456942e-02 -6.5409275001636473e+00 -1.9356841554396418e+00 -3.6496264934148464e+00 38 29 -51
109 27 3 3.2887140450178765e-03 -6.0426307170453013e+00 -2.7714568259983263e+00 -2.6438839799749760e+00 38 29 -51
17 1 1 9.8041167739287838e-05 -1.9367293622516089e+00 -1.4604038395993175e+00 -2.4799117581881260e+00 0 0 0
18 1 1 1.0550502659846181e-04 -9.5303628640414162e-01 -7.2704278403709499e-01 -3.2434676423196818e+00 0 0 0
36 1 1 9.8549630209181574e-05 -2.9331148347585070e+00 -8.0324375356162436e-01 -1.6651960865404896e+00 0 0 0
37 1 1 2.8812014497489602e-07 -1.6053971208244426e+00 -2.6662901908311980e+00 -1.7434726081681915e+00 0 0 0
47 1 1 3.3533030380020201e-06 -2.2967359871148569e+00 -2.6126978216194834e+00 -5.5301684071726542e-01 0 0 0
58 1 1 1.0279572604966238e-04 -3.1803222886485272e+00 -1.5324088231387190e+00 -4.9737082603884425e-01 0 0 0
149 48 3 -3.9131307606004445e-05 -3.5407726895464875e+00 -5.4223058260826171e+00 -2.0836177941693559e+00 16 -1 -10
115 30 3 -8.7265436183522893e-06 -4.3917247281754070e+00 -4.7169094389476038e+00 -1.9768628738326246e+00 33 31 -26
114 30 3 -1.7479168829644676e-03 -5.5091366066012037e+00 -3.6271798009240044e+00 -1.7617420178226291e+00 33 31 -26
290 122 3 -6.0662340867449760e-04 -4.8801314910080640e+00 -5.9237567646623468e+00 -5.0611159528661762e+00 8 -1 20
150 49 3 4.1811002874930989e-03 -6.0085850557904026e+00 -6.8454877422517924e-01 -3.6232824482055963e+00 -10 -8 12
38 1 1 -8.8549586853559070e-05 -2.1900872173445685e-01 -3.0277994454146930e+00 -1.7698279263003949e+00 0 0 0
291 122 3 -7.2593294926052987e-04 -4.8057980710080379e+00 -5.0302006523596514e+00 -5.9027184846911895e+00 8 -1 20
251 101 3 -5.9657444615905664e-04 -4.9223292543895134e+00 -4.0240649159701443e+00 -6.6935519600470244e+00 4 15 -25
250 101 3 -3.1895789929355656e-03 -4.8237797749198243e+00 -3.0676816192166303e+00 -7.5013170090288881e+00 4 15 -25
234 93 3 5.0107528504886312e-04 -1.1873184680125106e+00 -1.6731629249801443e+00 -7.6279369879058638e+00 -17 -9 11
248 100 3 1.5968623202650134e-04 -5.5898258477999905e+00 -3.3092342531455872e+00 -2.6818842138353455e-01 9 -11 25
93 19 3 8.1772731330038984e-05 -1.1453496012722376e-01 -2.2106660654092654e+00 -7.0432966172589380e+00 16 17 30
48 1 1 -2.3019960797739103e-05 -1.7856151083398057e+00 -3.1263368169548604e+00 6.8997825224225084e-01 0 0 0
165 56 3 1.1546326887803410e-03 -6.1854008590800424e-01 -1.4583128001465099e+01 5.1946683425811901e+00 -26 0 -48
164 56 3 -3.1702306295003646e-03 -2.0926846497862486e-01 -1.5621388752978500e+01 5.4393451382040139e+00 -26 0 -48
78 11 3 8.2735818178230752e-03 -3.5387131448667111e+00 -1.9211143213557932e+01 7.8236531735332795e+00 58 -6 10
81 12 3 1.3523921313462542e-03 -3.2490069822189596e+00 -1.6716927652541870e+01 7.8866995393484665e+00 63 -7 19
80 12 3 -3.9126075004780880e-03 -3.3338179073058769e+00 -1.7882818736409696e+01 7.8645509388921724e+00 63 -7 19
330 143 3 -6.1209005578038989e-04 -6.0737224754514401e+00 -1.2918718770485729e+01 4.9187729643903735e+00 1 -8 -1
226 88 3 -5.1858712261332318e-04 -1.0921675991338509e+00 -1.3269116490909623e+01 4.9131967802104475e+00 -12 -21 -6
331 143 3 -4.0494633552309867e-04 -5.3424832732792726e+00 -1.2936492914366001e+01 3.9642459730234618e+00 1 -8 -1
268 110 3 -3.4102007233212384e-04 -3.5593841449308044e+00 -1.0379678282885996e+01 5.7347754180121402e-01 7 -37 -16
306 130 3 -1.1346782035821790e-04 -3.0746846194844815e+00 -1.0573488933391896e+01 1.7652019542869775e+00 4 1 0
305 130 3 -1.3416727375392679e-04 -2.5856444296894083e+00 -1.0698292877214989e+01 2.9201499678874550e+00 4 1 0
232 92 3 -1.9448357404967982e-04 -2.0540510145070345e+00 -1.0828430176094756e+01 4.2654898431103190e+00 6 5 -4
225 88 3 7.4364199288752542e-05 -1.4899100429508456e+00 -1.2234433244177094e+01 4.6508967265014549e+00 -12 -21 -6
233 92 3 5.3202851126352146e-05 -1.8642813661241795e+00 -9.5849856399609727e+00 4.8866970958102813e+00 6 5 -4
82 13 3 1.0567517282795980e-05 -1.7536962771897981e+00 -8.4926232499536560e+00 5.3442633014791419e+00 -29 16 -45
83 13 3 7.3306075591417219e-06 -1.5797797004127785e+00 -7.3811753807154261e+00 5.8089039962676088e+00 -29 16 -45
205 77 3 -2.3287788343089033e-05 -1.0472379956339541e+00 -6.9799152588915510e+00 2.0098775398643777e-02 -21 -1 -7
216 83 3 -8.5575630112584566e-05 -2.5458447265920290e+00 -6.4065837991673522e+00 2.2401907714532316e+00 13 17 -3
215 83 3 4.5288313544541992e-06 -1.8508247083644098e+00 -6.7327646892897137e+00 1.1878549957272695e+00 13 17 -3
361 159 3 -6.2264041045070884e-04 -7.5142611166027535e+00 -8.0488948683082617e-01 2.2343252985836410e+00 -6 -7 -7
287 120 3 -2.0377872140502767e-04 -5.3282530611306740e+00 -3.0799879073087180e+00 2.3051175891747446e+00 3 -20 6
7 1 1 -9.3024546963704074e-05 -4.1396964395387914e-01 -1.2010234716472958e+00 3.3713562842034306e+00 0 0 0
286 120 3 -1.5224083230810925e-04 -5.1582355109229230e+00 -2.8286486120444305e+00 3.4009396678404076e+00 3 -20 6
181 65 3 -6.7736901155731472e-04 -3.7266252912897530e-01 -2.8132579026777091e+00 7.2913929934082429e+00 -6 5 -3
182 65 3 -4.7280665540395256e-04 -7.3118745758337711e-01 -3.8627052709679690e+00 6.9052246491098508e+00 -6 5 -3
263 108 3 -1.5826596992168929e-04 -4.8356615504759448e+00 -2.4152671731803399e+00 4.7444688699089923e+00 4 65 -8
172 60 3 -8.5108360546745643e-05 -1.4165292879768521e+00 -6.1240585534844092e+00 6.1859683386528532e+00 -8 2 -2
96 20 3 -7.7472487768959208e-05 -3.3210211381848467e+00 -6.1153688544451574e+00 3.2040860793886683e+00 52 -18 -45
309 132 3 2.3019007287516935e-06 -5.9424763073243945e+00 -5.2717904176147803e+00 7.4813176069795562e+00 -5 7 36
171 60 3 -1.0155267265726797e-04 -1.1039851356454256e+00 -5.0472307689959015e+00 6.4937159396065605e+00 -8 2 -2
123 34 3 -1.0566623758700988e-05 -4.7273440471918837e+00 -6.7396961569253211e-01 7.6383984699950904e+00 -16 -26 -10
59 1 1 -2.2751482218648367e-06 -3.8083775451926599e-01 -3.5913272105612628e+00 6.4030134195757316e-01 0 0 0
264 108 3 -1.8199149942048354e-05 -4.5610665939391355e+00 -2.1157632335708092e+00 5.8016479862501980e+00 4 65 -8
122 34 3 6.3253911475115616e-04 -4.3422752720027464e+00 -1.9235231362853140e+00 7.2679739102923406e+00 -16 -26 -10
27 1 1 -8.6886666817364774e-05 -2.8272594456412334e+00 -1.2139904330761386e+00 1.9691665019078444e+00 0 0 0
8 1 1 -2.3810857031816152e-05 -7.9672244375424517e-01 -2.3688925929335700e+00 2.6270469294495169e+00 0 0 0
57 1 1 1.3432136135379733e-05 -3.3998000253923890e+00 -8.1974560557762000e-01 6.8791654548953240e-01 0 0 0
249 100 3 -1.2471608906944320e-04 -5.5369857731622938e+00 -3.1635031406994063e+00 8.2917303159317957e-01 9 -11 25
95 20 3 -1.5288706993629719e-04 -4.0118905872159356e+00 -5.9238480476819655e+00 4.1957661179432018e+00 52 -18 -45
285 119 3 -3.8683325689535530e-05 -4.7275827507149577e+00 -5.7394702090368277e+00 5.2884812857408265e+00 14 16 24
284 119 3 -1.0280499592540959e-04 -5.3872206448724560e+00 -5.5359687800743718e+00 6.3610153320065743e+00 14 16 24
28 1 1 -7.8111051383084051e-05 -2.0528100445489530e+00 -2.4403274430277966e+00 1.9225061795749570e+00 0 0 0
87 16 3 -4.0909552431468710e-04 -3.2852721099824160e+00 -1.5408081199756809e+01 7.9801700143022511e+00 -13 24 -2
88 16 3 9.6497887008030470e-05 -3.4162781983239348e+00 -1.4211166528420343e+01 8.2131524379889633e+00 -13 24 -2
62 2 3 -2.7022154548021274e-03 -3.1424669827378788e+00 -6.7956133875787055e+00 9.3612572854218712e+00 27 -14 58
61 2 3 6.7504540755369824e-04 -3.3774993623876082e+00 -8.0037464805638070e+00 9.1695843788419555e+00 27 -14 58
141 44 3 -7.1012338734167957e-04 -3.4932748480638680e+00 -9.2756875972996351e+00 9.0573083211058147e+00 -19 2 4
142 44 3 1.4435194795993367e-04 -3.4603848452356036e+00 -1.0488271142856412e+01 8.9000423051594293e+00 -19 2 4
102 23 3 -2.3564836063603989e-04 -3.5433747550529215e+00 -1.2933468549495064e+01 8.4729994332867911e+00 36 -5 -65
101 23 3 -5.2964491680529413e-04 -3.4526674203520633e+00 -1.1729962070593821e+01 8.6461348581262847e+00 36 -5 -65
273 113 4 2.2248981310961216e-02 -1.2812117822051277e+01 -6.2863395700063434e+00 1.1080572001221995e+01 -11 7 7
278 116 3 -2.3291736536219701e-02 -1.1758056505585248e+01 -6.0142407917575209e+00 1.1000408909527696e+01 -1 10 1
279 116 3 8.2480076589217244e-03 -1.0673883383690789e+01 -5.7672372037879889e+00 1.0834358374309630e+01 -1 10 1
191 70 3 -3.2241213381895978e-03 -9.2787708531654882e+00 -5.2747769809721738e+00 1.0483050744661046e+01 16 -48 3
190 70 3 1.2742294719499531e-03 -8.2211335755008026e+00 -5.0017974168109189e+00 1.0203190430455853e+01 16 -48 3
312 133 3 -3.2671405170713735e-04 -6.8028914233900126e+00 -4.6487638361887917e+00 9.8216280750860925e+00 4 -2 -11
274 114 3 -7.3274418810898023e-04 -9.3122650015213342e+00 -6.0438425125963902e-01 8.2243041982360321e+00 -2 20 -11
275 114 3 1.0086784677863087e-04 -8.5710899471545936e+00 -1.3728112972401403e+00 8.7908795661014434e+00 -2 20 -11
124 35 3 -1.7670058887126082e-03 -3.6975661925384125e+00 -2.8636226046571629e+00 8.1851970992283096e+00 6 9 14
211 81 3 -9.3831612577046503e-04 -5.7289178834192866e-01 -8.7938747280868645e-01 8.8435905921765787e+00 10 -11 -3
212 81 3 5.1595962589870425e-05 -1.2729754006681466e+00 -1.4813956235222372e-01 9.7355082007085709e+00 10 -11 -3
230 90 3 -7.2698515730746510e-04 -3.5180765746823792e+00 -9.8211277126279861e-01 1.0971367301486668e+01 2 -17 -18
310 132 3 7.3934335963123099e-05 -6.4137694741701505e+00 -4.9901772497231525e+00 8.5301273997512812e+00 -5 7 36
311 133 3 -2.6227299834563622e-06 -6.1501356122000779e+00 -3.5193862291695113e+00 1.0495955222809110e+01 4 -2 -11
74 9 3 4.2619458340042854e-03 -2.7728378454608076e+00 -5.6318482341328213e+00 9.6304530925598275e+00 63 5 -15
75 9 3 -1.9957004387491720e-02 -2.4239506180259820e+00 -4.3909010239104793e+00 9.8472739675167364e+00 63 5 -15
168 58 4 2.1528476750476006e-02 -1.7163557320497604e+00 -4.0049364599226855e+00 1.0627069311601508e+01 -22 -41 -36
125 35 3 3.8719387227569482e-03 -3.1268395944091778e+00 -3.5269802973937421e+00 8.9318715707361385e+00 6 9 14
323 139 3 -4.9376197058473292e-04 -5.7938879598919613e+00 -2.3192825073835743e-01 1.3592713284116817e+01 -7 -18 9
167 57 3 -3.6046853639870591e-04 -5.5779615796055388e+00 -2.6715639862504572e+00 1.0985415464154086e+01 31 -7 -20
322 139 3 -1.6852783260547927e-04 -5.3544996067278356e+00 -8.6499580123410202e-01 1.2618160811441385e+01 -7 -18 9
166 57 3 -5.8776395982593904e-04 -4.7617619735158048e+00 -1.5279115247983004e+00 1.1594888972532164e+01 31 -7 -20
229 90 3 -1.5182093263746144e-03 -2.5652986646129472e+00 -5.9652380665151628e-01 1.0523557100819811e+01 2 -17 -18
314 134 3 -6.7767512248922968e-04 -7.7219302814258297e+00 6.5956976745962992e+00 -3.9471944401507685e+01 -9 0 -15
313 134 3 -6.7767512248809170e-04 -7.2379774735783595e+00 7.0215906478148860e+00 -3.8462771741710789e+01 -9 0 -15
354 155 3 -6.7467232293616508e-04 -3.9886347562757159e+01 1.9331127637334621e+01 -1.6992011080770038e+01 -1 -11 25
106 26 3 -2.1264133615186392e-02 -2.2390847460414385e+00 3.1801361272415161e+00 -1.0315604588896562e+01 17 24 0
147 47 4 2.1374033000120238e-02 -2.6667705017424539e+00 3.1017720551255077e+00 -1.1312554974303316e+01 4 -1 -4
159 53 3 4.9976505015512651e-03 -1.5746939854210169e+00 4.1652172220399715e+00 -9.9068590032003616e+00 -27 -24 -13
158 53 3 -2.8165755089363670e-03 -9.3680252895942107e-01 5.0726246900214838e+00 -9.3795592964509993e+00 -27 -24 -13
176 62 3 1.0871689715660007e-03 -3.8103662009367273e-01 5.9360150026887197e+00 -8.6608363111382509e+00 -19 24 28
107 26 3 4.1028706207533391e-03 -2.1020343688794436e+00 1.9764636780513072e+00 -9.3307388849779187e+00 17 24 0
239 95 3 -5.3878337993162467e-03 -2.7429890810829756e+00 8.1069236445876836e-01 -9.3256225041576748e+00 23 -12 6
92 18 3 -2.6021138885724653e-04 -9.0553624687973289e-01 2.0069329380235414e+00 -8.4081087105584338e+00 49 46 -53
15 1 1 1.3191256988836358e-04 -1.9392130035820079e+00 1.2873409627716521e+00 -2.5941843886321361e+00 0 0 0
16 1 1 2.2391421517718030e-04 -9.8695420199405670e-01 6.5356360880524145e-01 -3.2833484036978415e+00 0 0 0
34 1 1 -5.7814753159865853e-05 -1.6095555125625272e+00 2.4526019014611347e+00 -1.8414582368105057e+00 0 0 0
35 1 1 1.1541894495049887e-04 -2.9024971073511092e+00 6.1141541801583077e-01 -1.7110227902043964e+00 0 0 0
45 1 1 -1.0772900072255403e-03 -3.2824365451868531e+00 1.4070551789667674e+00 -6.0351159806005350e-01 0 0 0
56 1 1 -1.3098635993582745e-03 -2.4243341360670088e+00 2.5560709990779160e+00 -6.4578226970621677e-01 0 0 0
151 49 3 -3.1735805625873192e-03 -5.5678491898714837e+00 3.9750349237819477e-01 -3.7304530208207027e+00 -10 -8 12
143 45 3 -4.3384870942644871e-05 -5.0194772317375582e+00 1.5636228920631179e+00 -3.7548307605131686e+00 2 -7 -1
144 45 3 -1.7222618597907483e-03 -4.3330699010466303e+00 2.6377427183073423e+00 -3.5335685645569268e+00 2 -7 -1
133 40 3 -1.7899994475458203e-03 -3.7033005863148514e+00 3.7406337731035908e+00 -3.4794669689855202e+00 12 -7 7
134 40 3 -5.7378867786767040e-04 -3.0731954781276851e+00 4.7154496654706586e+00 -3.6204738840693818e+00 12 -7 7
138 42 3 -3.6055135455525036e-04 -2.2474452358910946e+00 5.8130657515874624e+00 -3.7272910070343568e+00 -6 -10 -8
137 42 3 -2.8086656844208621e-04 -1.0089453373285158e+00 6.1097097441858024e+00 -2.7394245266485280e+00 -6 -10 -8
113 29 3 -2.9897477774092074e-05 -1.4215623673668348e-01 6.3409536844954131e+00 -2.0970674063830850e+00 -5 15 15
336 146 4 2.2023993205630414e-02 -5.3110674477570168e+00 3.6850847631083963e+00 -8.7930804274312713e-01 -4 -7 12
33 1 1 -1.1597716144822606e-04 -2.8432605768888142e-01 2.9465944373677777e+00 -1.8043513866633318e+00 0 0 0
120 33 3 -4.5923279431672043e-04 -2.2943512100034349e+00 9.0535073220794864e+00 4.8973529882591926e-01 38 -26 7
145 46 3 8.0072659500723641e-03 -8.2618409973313733e-01 1.0944503236062445e+01 -5.3448039436771539e+00 29 -18 -2
163 55 3 -1.9956593360991037e-03 -2.4844434826141124e+00 8.6702369109239203e+00 -7.8863183489610806e+00 -7 -7 -36
195 72 3 2.0277625979472219e-04 -2.4326808040387715e+00 6.5848403836489329e+00 -4.8639197285276934e+00 -4 10 1
194 72 3 -1.5962271632299213e-04 -2.4456185766754044e+00 7.2406818457143265e+00 -5.8184476467148540e+00 -4 10 1
162 55 3 7.3533022925096128e-04 -2.5616830327952318e+00 7.9651522286248948e+00 -6.9106622025973632e+00 -7 -7 -36
183 66 3 -3.1975380053417962e-03 -1.1465739202721497e+00 1.0526827835204491e+01 -4.0660615472955639e+00 25 23 4
184 66 3 1.2502557105780326e-03 -1.4430476694146110e+00 1.0100453417136405e+01 -2.9985137241941135e+00 25 23 4
152 50 3 -5.6547658012900959e-04 -1.6569574442821353e+00 9.7204132510606893e+00 -1.7841566671943516e+00 34 -4 -12
153 50 3 -4.7311274110409252e-05 -1.9962816170483288e+00 9.3704208072196806e+00 -6.4362841666257331e-01 34 -4 -12
146 46 3 -2.1406722499253003e-02 -5.5637475425228278e-01 1.1393762317061249e+01 -6.3715845038594976e+00 29 -18 -2
189 69 4 2.1461223113128244e-02 -3.2753483128994221e-01 1.1845334472787147e+01 -7.3912617050487652e+00 7 -9 2
360 159 3 8.2938797160317726e-04 -7.0965272087724509e+00 2.1490693468572952e-01 1.7369409906500703e+00 -6 -7 -7
316 136 3 -2.2410883204533466e-03 -6.6632169206412408e+00 1.2940513277561667e+00 1.2042368005774708e+00 -17 -4 -44
103 24 3 -1.9805798800213582e-02 -6.0110202784939206e+00 4.3493983630676807e+00 7.4151636386585489e+00 -11 -4 48
129 38 3 9.4482309779107820e-04 -5.1057270363298564e+00 5.5587025575762117e-01 7.9296309253135675e+00 -4 -2 -15
317 136 3 3.9565991171650362e-03 -6.1298524539735624e+00 2.2426447644830332e+00 7.4769176911877588e-01 -17 -4 -44
130 38 3 -2.1082167643978467e-03 -5.4283128581691518e+00 1.7830681007263947e+00 7.8662066029718565e+00 -4 -2 -15
244 98 3 -1.9034953919116693e-02 -5.6279033824833693e+00 3.4788093436736767e+00 1.9501378292274743e-01 16 -15 -7
245 98 3 3.4954940183522867e-03 -5.4436281526020656e+00 4.3637097444874886e+00 1.1610875814412509e+00 16 -15 -7
44 1 1 -1.7155719462032260e-04 -3.8028225863684173e-01 3.4365171542617556e+00 6.1907921307457248e-01 0 0 0
4 1 1 1.0201564538293156e-04 -7.5778181721141424e-01 2.3367050350673981e+00 2.5864335957042623e+00 0 0 0
26 1 1 -3.8663062657297298e-06 -2.8098191969141744e+00 1.1261186935924257e+00 1.8417906933575612e+00 0 0 0
111 28 3 -6.5359840483471959e-04 -4.2885224482409692e+00 6.4481263297185931e+00 1.8377540901152967e+00 24 25 9
90 17 3 -2.0550614238204201e-03 -5.8357450352909996e+00 4.7360372097011822e+00 4.8145106779086380e+00 7 34 68
3 1 1 5.9658095302159153e-05 -3.8860405430172923e-01 1.1084499675032375e+00 3.2758345511805529e+00 0 0 0
70 7 3 9.4367897706282289e-04 -5.5551018702332291e+00 4.9732302035457021e+00 3.5702674678997606e+00 56 33 16
55 1 1 -1.5566852069871795e-04 -1.7274522985704701e+00 2.9530477913066715e+00 5.5449776769905668e-01 0 0 0
71 7 3 -1.9118379736142721e-03 -5.2945807958515774e+00 5.2587510125750727e+00 2.1290881532187496e+00 56 33 16
46 1 1 1.4377297426249481e-04 -3.3488777556410532e+00 6.3452975688695423e-01 6.2582305075604716e-01 0 0 0
5 1 2 4.4377220864734446e-05 -1.2510300000000001e+00 6.0000000000000001e-03 3.3899499999999998e+00 0 0 0
25 1 1 -8.1674155785829011e-05 -1.9525603448988611e+00 2.2769130500892487e+00 1.7945304076782200e+00 0 0 0
6 1 2 -9.9024381116127880e-05 -2.4703499999999998e+00 6.8199999999999997e-03 2.6358700000000002e+00 0 0 0
89 17 3 3.3950619971055071e-03 -5.9345867034820561e+00 4.5675180391139403e+00 6.0983306090327067e+00 7 34 68
69 6 3 1.0531022321319528e-05 -1.1843805498894360e+00 6.0449028917571432e+00 6.7125299243717436e+00 0 -1 71
104 24 3 3.7268205230951215e-03 -5.6780392955133854e+00 3.0181278496261950e+00 7.6684943494501230e+00 -11 -4 48
68 6 3 -2.3128227872754870e-03 -1.0561901709938419e+00 5.3487114909877178e+00 7.7756036268615905e+00 0 -1 71
197 73 3 -3.7545254852813792e-04 -1.1593114797033774e+00 6.8793586233250865e+00 5.7041740145712136e+00 24 23 -21
198 74 3 8.2039610613954261e-07 -1.8298784513507906e+00 8.7788304260425178e+00 2.8103767323745412e+00 -12 24 -9
121 33 3 -1.2463339021534514e-04 -2.6770238475818502e+00 8.5801268806066400e+00 1.7620659774052303e+00 38 -26 7
199 74 3 -1.8620081204977906e-04 -1.0872151932348915e+00 8.8634347694058242e+00 3.8429437681835914e+00 -12 24 -9
110 28 3 -3.6968670887115029e-04 -3.6428761294868091e+00 7.3388594028989349e+00 1.7783780882630529e+00 24 25 9
196 73 3 -5.7197617313792248e-05 -1.0875129633776892e+00 7.7212032678509175e+00 4.9011715512296146e+00 24 23 -21
319 137 3 -9.1085333582907602e-04 -6.6835561863573369e+00 1.3703083728758405e+00 1.5317334823160778e+01 -11 -22 7
105 25 4 2.0833647646846018e-02 -5.9926476871185690e+00 5.2260641778198558e+00 8.1128542125536143e+00 35 32 41
247 99 3 -1.7065055741655802e-03 -1.0686428524415648e+00 1.3476157747625386e+00 9.7533711107529815e+00 -8 -12 2
246 99 3 3.1578460173480594e-03 -9.3675093843839585e-01 2.4562283238509717e+00 9.8765949247318670e+00 -8 -12 2
201 75 3 2.0432445026347251e-03 -8.9149011718394222e-01 4.7084468432642987e+00 8.8297923999867294e+00 2 27 17
231 91 4 2.1084876378140022e-02 -8.3015945756504272e-01 4.4950348589326872e+00 1.0824423822709308e+01 9 18 8
200 75 3 -1.9237602937644920e-02 -7.4796800356162996e-01 3.9100926946233305e+00 9.9084857882618067e+00 2 27 17
318 137 3 2.0151445715467509e-05 -6.2978890609241214e+00 5.1150366817437731e-01 1.4526496730291280e+01 -11 -22 7
364 161 3 -6.7804273114485669e-04 -3.6418926921945292e+01 1.1117087181614352e+01 1.9751296225294080e+01 -10 -10 -14
365 161 3 -6.7804273114291380e-04 -3.6872306090354257e+01 1.0304970731184332e+01 1.8992955758648009e+01 -10 -10 -14
321 138 3 -6.7907371106804004e-04 -1.8020847762078297e+01 1.2065797523964632e+01 1.9745749679047766e+01 -4 -9 34
320 138 3 -6.7907371106920578e-04 -1.7851955157773915e+01 1.0873063177774933e+01 1.9659852554903260e+01 -4 -9 34
349 153 3 -6.7972039142119578e-04 -1.5011275334550706e-01 3.3870304864234676e+01 -1.8509088107479268e+01 6 -6 15
288 121 3 -6.8016618980801247e-04 -1.5206246076336072e+00 2.5512730989134294e+01 -6.0164548010556738e+00 -13 5 6
289 121 3 -6.8016618981775467e-04 -3.0583779954162221e-01 2.5447019941662045e+01 -6.0074323558801135e+00 -13 5 6
343 150 3 -6.8355815144921506e-04 -3.5971223872528299e+01 3.7239436604973321e+01 2.0683537741426367e+01 -4 0 5
344 150 3 -6.8355814432144446e-04 -3.5622304240434133e+01 3.8321231258672476e+01 2.0185650195269414e+01 -4 0 5
339 148 3 -6.7868116068003914e-04 -2.5946209766367136e+01 3.7168017143767472e+01 2.2398352958552593e+01 -11 7 12
340 148 3 -6.7868116216077135e-04 -2.4982888602810810e+01 3.6471504601203328e+01 2.2529028149680784e+01 -11 7 12
329 142 3 -6.7959401210179737e-04 2.4941424211076072e+01 -3.1368682898415219e+01 -1.5349660474877284e+01 6 5 -13
328 142 3 -6.7959401209916059e-04 2.4535022844532385e+01 -3.0462226866978181e+01 -1.6044153303324478e+01 6 5 -13
303 129 3 -6.7981193901145431e-04 1.8708333327595316e+01 -2.1528158269856185e-01 -3.8752338188373734e+01 27 4 -18
304 129 3 -6.7981193901145431e-04 1.8190223444054116e+01 -2.4397960436097585e-01 -3.9849783782881431e+01 27 4 -18
203 76 3 -4.9820495665593711e-04 1.2805969992743464e+00 -7.3366310937910182e+00 -8.9757141158845926e+00 -35 -30 45
358 158 3 -1.3729732554937368e-05 2.0987902789248656e+00 -6.7885956091465509e+00 -9.6863302525513610e+00 -2 8 -4
355 156 3 2.1286841609943763e-05 3.7332206944464197e+00 -5.0584516164621514e+00 -1.0441341936556709e+01 -1 1 1
359 158 3 -6.0287743608269939e-04 2.9332723427192500e+00 -6.0541552876351856e+00 -1.0272011111782842e+01 -2 8 -4
356 156 3 -5.3856816290404064e-04 4.2986757531765409e+00 -4.0630812904107296e+00 -1.0128994342312831e+01 -1 1 1
266 109 3 -1.1202625453941850e-04 4.7173585803974305e+00 -3.0572539800432863e+00 -9.4572331753299785e+00 26 -48 55
265 109 3 -3.9248309719278063e-04 5.0377643481356342e+00 -2.2533953617883826e+00 -8.5271807466999174e+00 26 -48 55
202 76 3 -1.4183586092478273e-04 4.6508408448010952e-01 -7.5777430550543192e+00 -8.0608900882191783e+00 -35 -30 45
136 41 3 -1.3840713964365092e-04 3.7263353580840786e+00 -1.0788575451105128e-01 6.3746170766434478e+00 -7 12 -15
19 1 1 -1.7377415422985612e-04 7.4743645915846491e-01 -2.3366708817513251e+00 -2.5972369538304663e+00 0 0 0
39 1 1 -1.5610779929044194e-06 1.9480604498824963e+00 -2.2617059844416847e+00 -1.8041100571914792e+00 0 0 0
40 1 1 4.4674660979547760e-05 2.7954398284747843e+00 -1.1246796711223772e+00 -1.8540546445163120e+00 0 0 0
49 1 1 4.8652830365060289e-05 1.7459458855719847e+00 -2.9785347766239814e+00 -6.3899488816821870e-01 0 0 0
52 1 1 4.0790447121265977e-05 3.3980136405104657e+00 -7.4562198532748369e-01 -6.6491769673514078e-01 0 0 0
60 1 1 -2.1567891527629612e-05 4.3036555593693276e-01 -3.5020315422479769e+00 -5.6630722871039507e-01 0 0 0
20 1 1 -1.2776368546654759e-04 3.6505991807122079e-01 -1.1699308941851185e+00 -3.3202451442635366e+00 0 0 0
209 79 3 -2.0020784850723616e-03 3.0869146773559999e+00 -5.8071686832634768e+00 -1.3754221368462854e-01 -1 3 4
220 85 3 5.1698473657944138e-04 3.3573763673073689e+00 -5.2916547710179671e+00 -1.3734731352130083e+00 5 -34 -13
219 85 3 -3.1274518063890977e-04 3.6228027875557225e+00 -4.8238008104121368e+00 -2.5206107268998910e+00 5 -34 -13
221 86 3 -2.7921670489344796e-05 3.9253589434125140e+00 -4.5383971063125692e+00 -3.7153611138267597e+00 4 -46 -18
186 67 3 7.8199386610397492e-05 5.6818263301817282e+00 -2.7609583747978097e+00 -7.9068620744040186e-01 -8 -27 17
132 39 3 -3.7545531905928964e-05 5.5445634094069050e+00 -2.2541671589428867e+00 -1.9201756748658660e+00 4 35 -20
222 86 3 -1.4074893416488737e-04 4.1748484864938078e+00 -4.1476423891639387e+00 -4.9830145020978698e+00 4 -46 -18
256 104 3 -2.1177623818242897e-04 2.9677089669979395e+00 -3.6575383300666253e+00 -5.5271798069387259e+00 41 -5 -11
255 104 3 -2.7717129944292151e-04 1.8687366496640097e+00 -3.3092074046209907e+00 -5.9765046928909769e+00 41 -5 -11
131 39 3 9.7548552238722885e-05 5.5027707601124662e+00 -1.6523756211201519e+00 -3.0788416102930101e+00 4 35 -20
94 19 3 -6.7588585685653124e-05 7.7994886886528769e-01 -2.7138543771771313e+00 -6.4888063973476955e+00 16 17 30
258 105 3 2.6543903716591544e-05 5.6419474510996919e+00 -3.6972405022934236e+00 -5.2296755014714762e+00 25 -15 3
301 128 3 8.8636233510769324e-05 5.2862437960621209e+00 -1.4788951277096953e+00 -7.5258054135077268e+00 27 -32 -18
174 61 3 -1.6476237019803948e-04 5.3825995681659586e+00 -9.9828537722365696e-01 -4.0917051134159443e+00 10 -4 11
302 128 3 -1.8222334553274350e-04 5.3008570451460058e+00 -8.4601376314486321e-01 -6.5405823571427977e+00 27 -32 -18
173 61 3 8.4330789993151273e-05 5.1451205822839956e+00 -8.0842231282679394e-02 -5.3030873381529755e+00 10 -4 11
257 105 3 -4.2517873250884353e-04 6.6839859524263243e+00 -3.4033099995533145e+00 -5.4903186027790278e+00 25 -15 3
307 131 3 1.1898174716093307e-03 8.0947134034680523e+00 -3.0141051867554318e+00 -5.8151438825734099e+00 -26 3 0
308 131 3 -3.2271196544598341e-03 9.1614388454831825e+00 -2.6742361442347296e+00 -5.9380995992140901e+00 -26 3 0
214 82 3 8.6088719237822839e-03 1.0642932935684227e+01 -2.3774479462826217e+00 -6.0826658697901248e+00 -35 -26 17
213 82 3 -2.3589384475654646e-02 1.1735129713857541e+01 -2.2582383937985502e+00 -6.2772996512615729e+00 -35 -26 17
210 80 4 2.2418171856255512e-02 1.2795599772540637e+01 -2.1775227533530161e+00 -6.4829723740028600e+00 -45 -12 10
252 102 4 2.2144872370342378e-02 5.7980273625420764e-01 -1.9132016135141406e+01 6.3125868517826431e+00 33 0 11
236 94 3 -2.2949393167515292e-02 3.5617639701978870e-01 -1.8093653968753213e+01 6.0411501347622760e+00 18 9 -10
237 94 3 8.5634127913640501e-03 1.3169294820151350e-01 -1.7042132948615663e+01 5.7195512837373270e+00 18 9 -10
374 166 3 -1.7391815486659801e-03 1.3088156522520225e+00 -7.8255323856312442e+00 2.9601369790307026e+00 13 -9 6
375 166 3 -6.4411787648951946e-04 1.0135073961235179e+00 -8.9707128641266305e+00 3.2699173134058555e+00 13 -9 6
206 78 3 -1.6524270255678652e-04 1.5078587721626397e+00 -1.0913942977076183e+00 7.3938239304751336e+00 -7 4 -3
218 84 3 -6.4322489191401266e-05 4.9040414312181724e-01 -6.5654617470447025e+00 2.0624180659106711e-01 3 10 -15
208 79 3 4.0228703237897220e-03 4.0309091014232115e+00 -5.6644768260523550e+00 8.3040765940596351e-01 -1 3 4
9 1 1 -2.9987174370034453e-05 9.5796345052611220e-01 -7.3823950341649003e-01 3.2873212252142006e+00 0 0 0
217 84 3 -3.0313028947279164e-04 1.5612153437488772e+00 -6.3220334182971731e+00 1.3829551287241218e-01 3 10 -15
50 1 1 1.2086111605798385e-04 2.3293089975108123e+00 -2.6017199868292153e+00 5.6418669107567254e-01 0 0 0
185 67 3 -4.1261668646615929e-04 5.6496938731553703e+00 -3.3783039212518200e+00 3.2673779573478795e-01 -8 -27 17