LAMMPS data file via write_data, version 3 Mar 2020, timestep = 10000000

438 atoms
4 atom types

-4.0000000000000000e+01 4.0000000000000000e+01 xlo xhi
-4.0000000000000000e+01 4.0000000000000000e+01 ylo yhi
-4.0000000000000000e+01 4.0000000000000000e+01 zlo zhi

Masses

1 12.0107
2 12.0107
3 12.0107
4 1.00794

Atoms # full

437 199 3 -6.7357189995279065e-04 -3.1997218171737451e+01 -2.6822957500946984e+01 -3.0316052616112547e+01 11 0 -8
438 199 3 -6.7357189995279065e-04 -3.1219436363557609e+01 -2.6834993016848205e+01 -3.1265811859174587e+01 11 0 -8
157 52 3 -8.0368064998337374e-04 -7.0349925020186208e-02 -2.0703105085312945e+01 -1.1671224132106013e+00 -108 -13 6
156 52 3 3.9889956462317577e-04 -3.2031988641659147e-02 -2.0051373307226772e+01 -2.1569451522163554e+00 -108 -13 6
329 142 3 -6.6989241826886925e-04 -9.9138297233284902e+00 -2.3765850079467365e+00 -1.6248995809730776e+01 26 -16 -1
328 142 3 -6.6989241826875823e-04 -1.0394287145779188e+01 -2.1001208747167066e+00 -1.7323776935604446e+01 26 -16 -1
391 175 3 -1.7018405486211169e-03 -6.6444166194660703e-01 -1.5020402989586621e+01 -4.7842237151768554e+00 -2 -1 5
330 143 3 1.5098354378147161e-04 -1.0979471755969430e+00 -1.3543025174854845e+01 -4.6469403418217574e+00 3 -18 -5
159 53 3 2.7085860194038039e-03 -5.2610291308277333e+00 -7.6514623410256066e-01 4.4372614226808187e+00 -27 -24 -13
392 175 3 1.8010327712046359e-03 -2.2518921837855946e-01 -1.6040401491329504e+01 -4.8470442770041320e+00 -2 -1 5
340 148 3 -1.4756908968474591e-04 -7.3993827874313911e-01 -7.3878714357435129e+00 -5.2470332331455776e+00 -30 -13 9
194 72 3 -1.3318668769052300e-04 -9.8355980974811530e-01 -8.3618331898197162e+00 -4.0313222679938807e+00 -4 10 1
331 143 3 -3.3362601303564554e-04 -1.3049629770943629e+00 -1.2439591734933154e+01 -4.5176447659013563e+00 3 -18 -5
162 55 3 -3.2736688754020360e-04 -1.3019036279296625e+00 -9.8369272739495539e+00 -4.1830945326829641e+00 -7 -7 -36
163 55 3 -1.6686558061394796e-04 -1.3996694174343705e+00 -1.0957373433503474e+01 -4.2638965344137443e+00 -7 -7 -36
195 72 3 -1.1820196599523353e-04 -1.1752802206691586e+00 -7.7075849642163350e+00 -2.8868009596369877e+00 -4 10 1
138 42 3 -1.7496953863498088e-04 -1.3711088974314352e+00 -7.0322560478382421e+00 -1.7749340720680475e+00 -6 -10 -8
137 42 3 -7.5711871400083175e-05 -2.4039324606934712e-01 -6.9844677356458043e+00 -6.9353170826375776e-01 -6 -10 -8
339 148 3 -9.4177288331095954e-05 -5.0486031305479684e-01 -6.6615673238972013e+00 -6.0494982613816015e+00 -30 -13 9
292 123 3 -5.0391947375939827e-04 -7.5818944233907200e+00 -1.2789303728666030e+00 -1.9658924505015629e+00 -14 13 34
371 164 3 -1.3070463548475325e-03 -8.5546500070564750e+00 -9.6376108692798934e-01 -9.9063819725437829e-01 7 12 12
370 164 3 -2.1354260464788305e-03 -9.3830242323687312e+00 -7.9695148774311964e-01 -2.0310791217410626e-01 7 12 12
293 123 3 -2.9816315665729537e-04 -6.8309228688744756e+00 -1.6412741986873320e+00 -2.7326867578787226e+00 -14 13 34
286 120 3 -2.5025474304569278e-04 -6.3402306676478878e-02 -5.5820464249480919e+00 -7.0267522191557950e+00 3 -20 6
151 49 3 -1.5224295688060080e-03 -5.8029076951176792e+00 -2.2382629672676515e+00 -3.6683154603386643e+00 -10 -8 12
134 40 3 -2.5846186394055948e-04 -2.4049450518942201e+00 -5.9543765416361580e+00 -1.9003291177875783e+00 12 -7 7
150 49 3 3.1210794655863322e-03 -5.5855935503562533e+00 -1.4624678217408249e+00 -4.6906514179403578e+00 -10 -8 12
287 120 3 -5.1699371081938283e-05 -4.8984549301600505e-01 -4.2846531190010717e+00 -7.0614770913852265e+00 3 -20 6
249 100 3 -2.2786094651968541e-04 -1.0958487317244350e+00 -3.2277522072766671e+00 -6.8894760907380999e+00 9 -11 25
17 1 1 1.2543361203539230e-04 -2.0981952596616265e+00 -1.3863027850148908e+00 -2.4110168521769206e+00 0 0 0
18 1 1 6.6089391760847799e-05 -1.1838490544673048e+00 -7.2595305100188456e-01 -3.2559891677046302e+00 0 0 0
36 1 1 2.0975823774182188e-04 -3.0854898560980106e+00 -6.2994258953575355e-01 -1.7070095384028281e+00 0 0 0
37 1 1 2.5337476654882507e-05 -1.6935716543639598e+00 -2.4951955885171397e+00 -1.6273181498820288e+00 0 0 0
47 1 1 -1.5335780652377812e-05 -2.4606613596775868e+00 -2.5277209428780099e+00 -4.5413117992220592e-01 0 0 0
58 1 1 -1.4096199767537482e-05 -3.3183163831366165e+00 -1.4047329874996883e+00 -4.8639761819249677e-01 0 0 0
114 30 3 -1.4843917249857536e-03 -2.4843906688601667e+00 -8.8236948817235361e-01 -6.4695904554975430e+00 33 31 -26
248 100 3 -3.3576423546385903e-05 -1.7431080929440992e+00 -2.1217528765487703e+00 -6.7266580869940338e+00 9 -11 25
109 27 3 2.4609778082505737e-03 -3.8276721232303434e+00 -7.9561075341610510e-01 -6.1365017167257037e+00 38 29 -51
38 1 1 2.7675660152095757e-05 -3.9628437450853321e-01 -3.0715580350996978e+00 -1.7097657202121292e+00 0 0 0
143 45 3 1.1522694227257546e-04 -4.9228152409929216e+00 -3.4879272507851251e+00 -3.2011365478621374e+00 2 -7 -1
144 45 3 -1.3005491081782145e-04 -4.1787327839932358e+00 -4.1979705576392252e+00 -2.7364439664251421e+00 2 -7 -1
133 40 3 -3.2164918047222768e-06 -3.1325218688097163e+00 -5.1576128858132364e+00 -2.2148806285919931e+00 12 -7 7
108 27 3 -1.9361065143115010e-02 -5.2308490826569427e+00 -7.0447752106004280e-01 -5.7745483082067368e+00 38 29 -51
7 1 1 4.8230859697111911e-05 -3.6104676227190552e-01 -1.1444369272427033e+00 3.2572304009997173e+00 0 0 0
353 155 3 -2.3182364761419501e-03 -1.0205804711371199e+01 -3.0084077208782617e-01 7.9790866459635323e-01 -15 -43 26
59 1 1 -1.5562147729265841e-04 -4.6168233369102724e-01 -3.5353655919686022e+00 6.9293041003423195e-01 0 0 0
176 62 3 2.9879741341831689e-04 -3.5134528864836376e+00 -2.5216852624036936e+00 4.7774047361269574e+00 -19 24 28
8 1 1 3.7230566181561779e-05 -7.4388849924654832e-01 -2.3173023240061354e+00 2.5350348585061977e+00 0 0 0
346 151 3 1.4687660287379667e-05 -1.4419002759630621e+00 -4.0112772319926950e+00 5.0690601432104412e+00 2 1 2
27 1 1 -1.8349670802055539e-04 -2.8123240021641713e+00 -1.1416757256597769e+00 1.9056368021710373e+00 0 0 0
175 62 3 -3.6767339196321080e-04 -2.5909474125130716e+00 -3.2257855311921815e+00 4.9313071794855770e+00 -19 24 28
345 151 3 -2.6194489280928490e-04 -5.5745596838372802e-01 -4.7325547971096462e+00 5.1390319548271162e+00 2 1 2
48 1 1 -2.2116089718915433e-04 -1.8507863390584893e+00 -3.0273032027633473e+00 7.4050134021378300e-01 0 0 0
158 53 3 -2.1939608478629413e-03 -4.3716195009918541e+00 -1.6201938301220620e+00 4.6024994770205412e+00 -27 -24 -13
28 1 1 -1.4604975167034281e-04 -1.9823308153194703e+00 -2.3257644842570766e+00 1.9506016105178354e+00 0 0 0
57 1 1 -4.8630226738157964e-04 -3.5300644363067080e+00 -7.2643186492479583e-01 7.0865159753093521e-01 0 0 0
126 36 4 2.1474219343984649e-02 -5.9763697190572227e+00 -4.3012378392865247e-01 -6.5243440342390082e+00 14 44 -22
147 47 4 2.0665988491397239e-02 -7.0832872692289595e+00 -1.8863845010115560e-01 4.0213421460332519e+00 4 -1 -4
401 180 3 -6.6649786567712921e-04 -1.8939531645280020e+01 -6.2478817293061439e+00 2.0051543404634149e+01 -11 -2 0
400 180 3 -6.6649786567718472e-04 -1.7820963654328864e+01 -5.8128019896673662e+00 1.9994977970031343e+01 -11 -2 0
267 110 3 -1.7588214947195091e-04 -1.1897139999458828e+00 3.0651378901760848e+00 -9.6254702375916175e+00 7 -37 -16
268 110 3 -2.8060832300218219e-04 -2.8574275784498138e-01 2.6037674259891346e+00 -1.0326598687998802e+01 7 -37 -16
280 117 3 -3.7086282765429190e-04 -2.1014303862043477e+00 3.5129441944748510e+00 -8.8314240477171015e+00 3 -7 -6
431 196 3 -6.7167985262561736e-04 -3.4742012741102322e+01 3.0067384353544608e+00 -8.7073434337806555e-01 -3 -7 5
178 63 3 3.8327805064001103e-03 -6.8114194921882829e+00 1.6476083157960550e+00 -6.8706521723503144e-01 -41 -11 -13
250 101 3 -1.6064025093539200e-03 -6.5926822732365000e+00 1.7932011301683657e+00 -1.9933124237841224e+00 4 15 -25
251 101 3 2.5881817101328086e-04 -6.2896548961910472e+00 2.0643586614102567e+00 -3.2450115926473728e+00 4 15 -25
291 122 3 -8.0956043460767707e-04 -5.7871222750625986e+00 2.6217741385949558e+00 -4.2804905967144284e+00 8 -1 20
290 122 3 -5.9603784256649986e-04 -5.2014102350342775e+00 3.2903321939073202e+00 -5.1551496623614188e+00 8 -1 20
192 71 3 -1.8636141864266514e-04 -4.6762707605939786e+00 4.2350017431992422e+00 -5.9810728168548293e+00 3 -22 22
193 71 3 -6.7335850290439758e-04 -3.7946399745703254e+00 3.9147323991359007e+00 -6.9793069363565312e+00 3 -22 22
154 51 3 2.8235938689405438e-05 -4.2759236121544433e+00 5.8125634917243341e+00 -2.5889469370893878e+00 27 7 31
15 1 1 1.6118457642522871e-04 -2.1170531461954250e+00 1.4647974831575468e+00 -2.5354426156859735e+00 0 0 0
16 1 1 -1.9816618270527414e-05 -1.1219334474970821e+00 7.2688123973978913e-01 -3.2672787670574843e+00 0 0 0
34 1 1 1.3625290909497628e-05 -1.6978162829332937e+00 2.5893084522901590e+00 -1.7793383783152303e+00 0 0 0
35 1 1 1.4586161621996628e-04 -3.0273267774271448e+00 7.8777280209737821e-01 -1.6751408208690874e+00 0 0 0
45 1 1 2.4517947948382059e-04 -3.1945025136843741e+00 1.5116499193183071e+00 -4.6643962651625392e-01 0 0 0
56 1 1 2.6545301039737623e-05 -2.2796728497116532e+00 2.6326018953885462e+00 -5.2195629088819429e-01 0 0 0
333 144 3 -1.2636953667231193e-04 -1.4448917651113460e+00 5.8233321114641585e+00 -4.0697209800660792e+00 -1 -1 -1
296 125 3 -8.6367212796048531e-06 -1.0009178695273204e+00 4.7198653759957923e+00 -4.7725849232064794e+00 18 -1 -16
33 1 1 -1.0803017740166135e-04 -3.0240702965240374e-01 3.0337741278467210e+00 -1.7695555563372687e+00 0 0 0
256 104 3 -1.6679111552431181e-04 -3.1440566711399032e-01 6.6985918689656847e+00 1.3228379484209096e+00 41 -5 -11
149 48 3 -2.6135499896752512e-05 -1.0543804198549993e+00 1.3892114424951947e+00 -6.2915924318520355e+00 16 -1 -10
155 51 3 2.2554391784654348e-05 -4.1054818289544333e+00 5.7460591276391897e+00 -1.3811012324088350e+00 27 7 31
365 161 3 -2.2757479700542815e-04 -4.7430350346935555e+00 5.6525515204392969e+00 -5.1494231048206451e+00 -27 -4 -24
364 161 3 -2.8223409707373026e-05 -4.5211296508352721e+00 5.8872797112998940e+00 -3.8374467196368256e+00 -27 -4 -24
115 30 3 -1.1201379292502534e-05 -1.6558626514484218e+00 4.5210253876057888e-01 -6.3442413767269938e+00 33 31 -26
295 125 3 3.9156902296090534e-05 -6.7321088471697499e-01 3.7993575240020991e+00 -5.3670326215197530e+00 18 -1 -16
148 48 3 9.3906424056522039e-05 -1.7291819222855920e-01 2.7431234858681148e+00 -6.1986034958762755e+00 16 -1 -10
332 144 3 -1.8938401557971191e-04 -1.7229818115972735e+00 6.6737715882105517e+00 -3.3439197143113084e+00 -1 -1 -1
202 76 3 -2.6801825783556721e-04 -1.9550900359598662e+00 7.6615278388723862e+00 -2.4830065657323912e+00 -35 -30 45
203 76 3 -2.4857635999202266e-04 -2.1100999301035177e+00 8.5037372232770529e+00 -1.5725494852388724e+00 -35 -30 45
358 158 3 -3.2984276022739178e-04 -2.0846778614324131e+00 9.2184032340344082e+00 -5.6019916764132194e-01 -2 8 -4
432 196 3 -6.7167985262556185e-04 -3.4547297556031218e+01 2.1554580007306887e+00 -1.3514071402925107e-02 -3 -7 5
357 157 4 2.1688271904675569e-02 -7.7364991198221960e+00 9.0224886909612556e-01 1.0573415210352433e+00 -12 1 10
177 63 3 -1.9133679775575636e-02 -6.9266178497592730e+00 1.5360624295459533e+00 6.4509217143658837e-01 -41 -11 -13
354 155 3 -2.9503768786389439e-03 -1.0894429185009884e+01 2.2192094923118411e-01 1.6675675475916909e+00 -15 -43 26
93 19 3 -1.4236164178414029e-04 -3.8961865397767372e+00 5.6666819526991503e+00 3.2172035101970101e-02 16 17 30
139 43 3 1.8000834684525624e-04 -1.9846667836712417e+00 2.6516773150132678e+00 5.5842836867237642e+00 1 42 -4
94 19 3 1.5074019762001400e-05 -2.7528760717939180e+00 6.0015127279377563e+00 7.4578635577477215e-01 16 17 30
91 18 3 2.3642082032699491e-04 -3.3727152479290572e+00 2.4332427694747238e+00 5.0374394310271997e+00 49 46 -53
55 1 1 -2.4788575352915898e-05 -1.7009800369598511e+00 3.1224127349228468e+00 6.5509769409927232e-01 0 0 0
3 1 1 -2.3666548752685965e-05 -3.5038180605604002e-01 1.1504762554418311e+00 3.2754577495251502e+00 0 0 0
46 1 1 1.6202062321546418e-04 -3.4986805605080300e+00 7.3597816056236698e-01 7.0109243641606056e-01 0 0 0
25 1 1 1.0074048047563344e-04 -2.0189508964785978e+00 2.3122516408176121e+00 1.8633075660170961e+00 0 0 0
26 1 1 7.8976336349005638e-05 -2.7957578587304392e+00 1.1513041901042269e+00 1.8935234701417862e+00 0 0 0
238 95 3 3.5806733975522129e-03 -6.2089474613331150e+00 2.4967230337039874e+00 1.5441631750411766e+00 23 -12 6
234 93 3 2.9732830531760401e-04 -4.8305871109814680e+00 4.5329187958935666e+00 6.2451549758071490e-01 -17 -9 11
44 1 1 -1.2594035999384870e-04 -3.7831024808980462e-01 3.5740066775645203e+00 6.4722375268639565e-01 0 0 0
5 1 2 2.0663802638648532e-04 -1.2510300000000001e+00 6.0000000000000001e-03 3.3899499999999998e+00 0 0 0
107 26 3 3.3243891458477684e-03 -5.7096965064111096e+00 1.6601689338983538e+00 3.9772976640190394e+00 17 24 0
235 93 3 -6.3960641194060058e-04 -5.4056914310156232e+00 3.6933575879493850e+00 1.0235927948948218e+00 -17 -9 11
4 1 1 -3.5450536211229303e-05 -7.5295629020248711e-01 2.3427159751071178e+00 2.5482079675336458e+00 0 0 0
92 18 3 -7.1021313721955637e-05 -4.3511151483051913e+00 2.1185163193888967e+00 4.5760636353740471e+00 49 46 -53
6 1 2 1.6884601973280028e-04 -2.4703499999999998e+00 6.8199999999999997e-03 2.6358700000000002e+00 0 0 0
239 95 3 -4.6371765960859720e-03 -5.9732597512314909e+00 2.0694532715799121e+00 2.7785501587591641e+00 23 -12 6
419 189 3 -3.3149117547978668e-04 -2.2757237911401460e+00 5.8251113135071115e+00 7.0077723051484684e+00 -5 0 6
418 189 3 -1.5018962049036591e-04 -2.1182469913517195e+00 5.9501852754986340e+00 5.7278895190798904e+00 -5 0 6
423 192 3 -8.4589228951159612e-05 -2.0700412713227312e+00 6.0753709811132159e+00 4.4097810916354687e+00 -9 -5 8
140 43 3 -5.9846606122408025e-05 -9.2285096377571307e-01 2.8955281603418843e+00 5.8510098039016301e+00 1 42 -4
424 192 3 -7.4354752142527514e-05 -1.9707948202279921e+00 6.1915984462142042e+00 3.2432080937150745e+00 -9 -5 8
255 104 3 -1.0042068736246072e-04 -1.6914601899819097e+00 6.3226166756394750e+00 1.6579888654231700e+00 41 -5 -11
106 26 3 -1.9600512559069069e-02 -6.0839111154833416e+00 1.9645104878436698e-01 4.2383918858032592e+00 17 24 0
356 156 3 -1.5237354806003217e-04 -1.2344699143838589e+00 9.7103491760706646e+00 2.9082765809599573e+00 -1 1 1
265 109 3 -1.2610674405653943e-04 -3.6527469073086749e-01 8.7123905654869116e+00 4.9407010579153230e+00 26 -48 55
355 156 3 -2.9587446325024525e-04 -1.6333146085549644e+00 9.8334353669161079e+00 1.7559782899792677e+00 -1 1 1
359 158 3 -2.2391254438912378e-04 -1.9496021739829923e+00 9.6107737989915982e+00 5.5519816343209361e-01 -2 8 -4
266 109 3 -2.7455220512602463e-04 -9.0259436436181439e-01 9.3390426696624260e+00 4.1153092134567810e+00 26 -48 55
281 117 3 -2.9709958296925132e-04 -2.9195062126559503e+00 3.8041322193552807e+00 -7.9922383058920774e+00 3 -7 -6
430 195 3 -8.5556178035139929e-04 -2.4832109436688077e+00 5.6892625308126590e+00 9.4852564938708408e+00 -2 -11 2
429 195 3 -6.5915261748419537e-05 -2.3159195816697933e+00 5.6926254456536398e+00 8.2907050069816162e+00 -2 -11 2
379 169 3 -6.7003190643510901e-04 -3.0373279049269950e+01 1.7676673024347831e+01 1.7471419428369973e+01 -15 -8 14
380 169 3 -6.7003190643483146e-04 -3.0775981246998604e+01 1.6824974208778535e+01 1.6673448630117232e+01 -15 -8 14
417 188 3 -6.7154569985380941e-04 -2.0081031104464067e+01 2.1283233464016192e+01 -2.5197578430565429e+01 -13 19 9
416 188 3 -6.7154569985380941e-04 -1.9527687521749957e+01 2.2375626565670455e+01 -2.5063986564179608e+01 -13 19 9
428 194 3 -6.7055709091409788e-04 -1.7725086266778405e+01 3.8514183437840451e+01 -1.9504214558880800e+01 8 -15 -5
427 194 3 -6.7055709091409788e-04 -1.8412613057955841e+01 3.7515434611564103e+01 -1.9472106586637373e+01 8 -15 -5
382 170 3 -6.7158379338111418e-04 -2.8856173784712976e+01 3.5200541047436346e+01 -1.2354106998708239e+01 3 44 29
381 170 3 -6.7158379338100316e-04 -2.9321799844567018e+01 3.4117846453537794e+01 -1.2025954359360155e+01 3 44 29
388 173 3 -6.7031817898161039e-04 -8.9473143003488573e+00 3.8135493299212762e+01 8.3413444177325342e+00 6 -23 -17
387 173 3 -6.7031817898169366e-04 -9.4003004704949795e+00 3.9206476996899575e+01 8.0056270724285330e+00 6 -23 -17
343 150 3 -6.6293241591433572e-04 1.0874107363040201e+01 -2.6042085460672105e+01 -7.5080087367177599e+00 -1 18 50
344 150 3 -6.6293241594744812e-04 1.2081384891464349e+01 -2.5928488670955101e+01 -7.1923955321876765e+00 -1 18 50
350 153 3 -6.7518969051852396e-04 1.6202206855350688e+01 -2.5689511464944204e+01 3.4353041801806117e+00 -21 -7 37
349 153 3 -6.7518969051871824e-04 1.7005098944164054e+01 -2.4779456011268913e+01 3.6531456092866712e+00 -21 -7 37
425 193 3 -1.7812699832004675e-03 1.0939051725738599e+01 -1.3717174105751226e+01 -1.0979011251569357e+01 0 0 0
105 25 4 2.0473620461087694e-02 6.1049922170934767e+00 -1.2105255115609339e+01 -1.1607533251926583e+01 35 32 41
103 24 3 -2.0183411916432338e-02 6.5830926950424340e+00 -1.1624417138048191e+01 -1.0742646474740607e+01 -11 -4 48
104 24 3 2.9070960175422642e-03 6.0650776594278542e+00 -1.0284758284905172e+01 -1.0155713597722919e+01 -11 -4 48
130 38 3 -1.9329197599775999e-03 5.6316421310806568e+00 -9.3114975514661502e+00 -9.7700056551871821e+00 -4 -2 -15
129 38 3 5.3692912195345277e-04 4.9336739745901204e+00 -8.1722694058715106e+00 -9.1311375975166413e+00 -4 -2 -15
123 34 3 -3.0475671605439264e-04 4.4082686443460677e+00 -7.3473375910323888e+00 -8.5796807671243212e+00 -16 -26 -10
273 113 4 2.2209743811220851e-02 9.1946041212957219e+00 -1.1261264346287089e+01 -1.2475095421489932e+01 -11 7 7
278 116 3 -2.1975139647684765e-02 8.9429579527483476e+00 -1.0172644720855672e+01 -1.2377513108879176e+01 -1 10 1
89 17 3 2.3224417076186049e-03 7.7711513865953847e+00 -1.1844745809511267e+01 -1.0322832757565743e+01 7 34 68
90 17 3 -2.0823050828880814e-03 9.0757326816708517e+00 -1.2023777535706525e+01 -9.7494464565036019e+00 7 34 68
70 7 3 1.3667750815366149e-03 9.3903690652956939e+00 -1.1125356082985999e+01 -8.6733434849717170e+00 56 33 16
426 193 3 -2.2708398881273514e-03 1.0127362977047227e+01 -1.2902023376097475e+01 -1.0489482979327791e+01 0 0 0
279 116 3 8.4093389654472592e-03 8.7271826163802420e+00 -9.0836033867370833e+00 -1.2224318115120042e+01 -1 10 1
244 98 3 -1.8693562184182722e-02 1.1422509823591753e+01 -8.0563275058774035e+00 -8.0371585588774987e+00 16 -15 -7
317 136 3 3.7648006207140518e-03 1.1614166272730253e+01 -7.7475082335641519e+00 -9.3994215114019894e+00 -17 -4 -44
316 136 3 -2.1208454731648958e-03 1.1789979103172096e+01 -7.6481639008248159e+00 -1.0546985086808371e+01 -17 -4 -44
360 159 3 6.5386938876843548e-04 1.2032889307114566e+01 -7.6530478313739065e+00 -1.1838905846427124e+01 -6 -7 -7
191 70 3 -2.9926897095681124e-03 8.5506013311991964e+00 -7.6222130520020448e+00 -1.2024824873596570e+01 16 -48 3
190 70 3 1.2856998834026231e-03 8.5358529235559342e+00 -6.5081414239754354e+00 -1.1759090269978710e+01 16 -48 3
361 159 3 -4.9893972088191352e-04 1.2206931235670840e+01 -7.6541794940428725e+00 -1.3184555297250371e+01 -6 -7 -7
314 134 3 -4.6405215010061895e-04 1.3637757399599485e+01 -7.5118423807394921e+00 -1.3723612373747931e+01 -13 -6 -32
284 119 3 -9.3593012023725219e-05 5.9610488114896683e+00 -2.9580309716488560e+00 -9.3822530750421915e+00 14 16 24
407 183 3 -2.2723873913779030e-04 1.6532127412423299e+00 -1.1280752032746648e+00 -8.4117792746564586e+00 0 0 -1
285 119 3 8.7928920027666169e-05 5.5030749304197757e+00 -2.0933537882679611e+00 -8.5721589724309464e+00 14 16 24
434 197 3 -1.5241124710376613e-04 1.2555224733568409e+00 -2.1077211395419740e-01 -9.2865170727697279e+00 6 8 -2
309 132 3 -2.0106379126801077e-04 6.5492292648252226e+00 -3.7822542791980784e+00 -1.0198969137385596e+01 -5 7 36
313 134 3 -5.6219753474015532e-05 1.2990080542089832e+01 -6.6112846502443503e+00 -1.3918829107469971e+01 -13 -6 -32
310 132 3 -5.7292520844409722e-05 7.4143011867522999e+00 -4.4852015821220474e+00 -1.0838414299226402e+01 -5 7 36
167 57 3 -3.9544383738003563e-04 1.0898971285638789e+01 -4.2195706115020029e+00 -1.0479257784856037e+01 31 -7 -20
142 44 3 1.8773839696045042e-04 9.1650406300661746e+00 -7.3328284617194350e-01 -9.2763262968142790e+00 -19 2 4
230 90 3 -8.0433594440967177e-04 1.2165842696689438e+01 -3.2964106667690269e+00 -8.4479573279413263e+00 2 -17 -18
166 57 3 -2.8875025834580043e-04 1.2234278373012488e+01 -3.8929429825897781e+00 -9.8659136988440572e+00 31 -7 -20
312 133 3 -3.5305139084806231e-04 8.5319178762911747e+00 -5.1205445050681604e+00 -1.1358899355239531e+01 4 -2 -11
311 133 3 -1.7387759724198787e-04 9.8766336210699475e+00 -4.5332720195341958e+00 -1.0815685257035549e+01 4 -2 -11
322 139 3 -3.8487944861063939e-04 1.3365549500652810e+01 -4.3015202643555046e+00 -1.0359220878024766e+01 -7 -18 9
141 44 3 -8.3463239650860555e-05 9.0914045241107360e+00 -1.7117119550368873e+00 -8.4533712989290510e+00 -19 2 4
323 139 3 -2.9592895501795446e-04 1.4495449538193423e+01 -4.6830317081985200e+00 -1.0739986702904719e+01 -7 -18 9
318 137 3 -1.2174783809816916e-04 1.5699614895889880e+01 -5.0206970001943771e+00 -1.0951399357088771e+01 -11 -22 7
319 137 3 -7.4654572638854777e-04 1.6860778369755145e+01 -5.3903666793209366e+00 -1.1198961615544764e+01 -11 -22 7
184 66 3 -1.4992729483942480e-03 4.1261163136093852e+00 -1.5498542655065421e+01 -4.3823669560915137e+00 25 23 4
183 66 3 -2.2423032601958798e-03 3.0470207151607047e+00 -1.6517764143960331e+01 -4.5245018587180930e+00 25 23 4
145 46 3 1.5424359968852219e-03 2.0484307110516227e+00 -1.6963995655669358e+01 -4.7855348745185475e+00 29 -18 -2
152 50 3 -1.7497112694163375e-03 4.7860276749143331e+00 -1.4597550443537184e+01 -4.3034444504733687e+00 34 -4 -12
146 46 3 -1.8001763032803576e-02 5.7087979720096682e-01 -1.7437193496898555e+01 -5.1048416414767459e+00 29 -18 -2
277 115 3 1.2539221723619903e-03 2.8054616157666856e-01 -1.8458906980028480e+01 -4.0201972808535684e+00 -14 -5 -30
153 50 3 -7.3802364852899871e-04 5.7433241357667679e+00 -1.3378596249001847e+01 -4.2453595039323320e+00 34 -4 -12
189 69 4 2.0750476291052838e-02 3.7845798218736354e-01 -1.7949274700723542e+01 -6.0634053016360321e+00 7 -9 2
276 115 3 -1.7089964588128531e-03 9.6557846701833774e-02 -1.9262190369376231e+01 -3.2025572371610425e+00 -14 -5 -30
399 179 4 2.2880112745758081e-02 5.7616973979371524e+00 -1.5499467709328311e+01 -6.6592688655565908e+00 -11 11 0
410 185 3 6.0090485403545280e-03 8.0149912221610364e+00 -1.5509499103548002e+01 -6.6872195473418143e+00 -5 11 -4
411 185 3 -2.1441180805567853e-02 6.8364702589186113e+00 -1.5621339380886447e+01 -6.6891484936259342e+00 -5 11 -4
303 129 3 1.6050638439843445e-04 4.1851738344525629e+00 -9.1655502974530574e+00 -5.7061704141569249e+00 32 -6 21
304 129 3 -1.3727467372786351e-03 4.5951202393627941e+00 -8.4205418082613992e+00 -4.8384728399216250e+00 32 -6 21
113 29 3 -2.0153217488597108e-04 6.5511254894419479e-01 -6.8343189050195647e+00 -3.8021169351684106e-02 -5 15 15
120 33 3 -1.8476044363655020e-05 6.4037522573309520e+00 -1.2497303579057125e+01 -4.2797677382340797e+00 38 -26 7
121 33 3 9.7803937992857470e-06 7.4187667254888572e+00 -1.1268139449425194e+01 -4.2143088869620868e+00 38 -26 7
110 28 3 -1.8833207268201257e-04 8.2569082583025537e+00 -1.0750376996859714e+01 -5.3843183798068992e+00 24 25 9
198 74 3 -3.2852842936269278e-04 7.5385381973431098e+00 -1.0575004490996529e+01 -3.1595582093449299e+00 -12 24 -9
196 73 3 -3.2424935888158979e-04 8.9687899103253788e+00 -8.8715187561168012e+00 -2.2082217575476801e+00 24 23 -21
199 74 3 -4.1242075271337095e-04 7.7884381134513552e+00 -9.7373109729866538e+00 -2.0631247147538261e+00 -12 24 -9
65 4 3 -3.7403173791486499e-05 7.2836845939882942e+00 -1.0088162234184347e+01 -6.5330951531752801e-01 148 44 5
197 73 3 -1.3342144096354924e-03 9.8601332525524334e+00 -8.2017378031807109e+00 -2.4717478973902032e+00 24 23 -21
69 6 3 -3.2253543146419650e-04 1.0911677972915784e+01 -7.2980353422480810e+00 -2.5557360513287359e+00 0 -1 71
111 28 3 -4.0274521459989637e-04 8.9359448040635279e+00 -1.0423923490857808e+01 -6.2194152482919414e+00 24 25 9
336 146 4 2.1373679370681974e-02 1.1542790476922532e+01 -7.3283787284070456e+00 -7.1776373827967674e+00 -4 -7 12
71 7 3 -1.2881260214322940e-03 9.7012480245112691e+00 -1.0201448306515950e+01 -7.6169923062176661e+00 56 33 16
245 98 3 2.5726626802633976e-03 1.0580535749703404e+01 -9.1410639307579000e+00 -7.8277947093374998e+00 16 -15 -7
116 31 3 -2.4890247217797257e-04 3.2386711696756971e+00 -6.3759457512244921e+00 -5.8160901259960825e-02 0 34 -5
288 121 3 -3.7600008538595658e-04 3.1257627499939766e+00 -5.7361043705438126e+00 -1.2863763797735781e+00 -34 11 24
95 20 3 1.5173480564192529e-04 5.1388331910321030e+00 -1.4440437652947113e+00 -7.6297824207317406e+00 52 -18 -45
124 35 3 -2.0497607081600387e-03 4.8479111526165690e+00 -5.5912435998898813e+00 -6.8525102954887087e+00 6 9 14
125 35 3 3.5333086875570102e-03 5.6259224541758162e+00 -5.1907608415027093e+00 -6.1220325357813286e+00 6 9 14
289 121 3 -8.1675350744778857e-04 3.0598857721950621e+00 -5.2252934833225959e+00 -2.3984486467767252e+00 -34 11 24
363 160 3 -3.8614416394787757e-04 2.8761350969549015e+00 -4.6727580742361816e+00 -3.5181659396047231e+00 16 -3 4
96 20 3 9.2583794771968972e-05 4.7315980239789628e+00 -8.1171607375483079e-01 -6.4811515647934197e+00 52 -18 -45
283 118 3 1.6564315092807563e-04 5.0387500138876424e+00 -1.4517621282776840e+00 -5.2147505372817466e+00 27 -21 16
282 118 3 -3.2722703824413640e-04 5.2360780731578354e+00 -1.9318511427598264e+00 -4.1746654663911578e+00 27 -21 16
19 1 1 -1.9441546233369550e-05 5.6979888514267352e-01 -2.3157671610709776e+00 -2.4722285630219720e+00 0 0 0
39 1 1 -7.7236310373610118e-05 1.8119830321656272e+00 -2.3844975601124592e+00 -1.7534399464103123e+00 0 0 0
40 1 1 -2.9477890084780162e-05 2.6443798391057585e+00 -1.1994832997419660e+00 -1.7914505908132752e+00 0 0 0
49 1 1 -5.7139211302570381e-05 1.6089672470998986e+00 -3.1330732067781684e+00 -5.5358263384208495e-01 0 0 0
52 1 1 1.0160109172075923e-04 3.2759034575403509e+00 -7.4731298394029899e-01 -6.7309627629027902e-01 0 0 0
60 1 1 -1.1743089732679790e-04 2.1516819418184407e-01 -3.4955074056414710e+00 -5.0993624605942012e-01 0 0 0
393 176 3 -7.9765083397653758e-04 5.1607336990573707e+00 -2.8423166160665949e+00 -1.8133808009814600e+00 6 -19 -2
394 176 3 -1.4802655344743482e-03 5.2479869446300524e+00 -2.5024132040125759e+00 -2.8850124438795324e+00 6 -19 -2
20 1 1 -6.3250586285409915e-06 1.8816643784377282e-01 -1.1764418358356710e+00 -3.3135553367168167e+00 0 0 0
362 160 3 -3.0731233354513304e-04 2.6672452271164588e+00 -4.0246756499615550e+00 -4.6078592118048123e+00 16 -3 4
369 163 3 2.5105225521641905e-04 2.4355928357637913e+00 -3.3207440661517524e+00 -5.5487023198197889e+00 -6 25 11
368 163 3 -1.3902767698251509e-04 2.1572288028346840e+00 -2.7206989974222280e+00 -6.5725074432825465e+00 -6 25 11
406 183 3 8.0550416105329425e-05 1.9623892073470457e+00 -1.9956261435458549e+00 -7.5233843391832931e+00 0 0 -1
263 108 3 -9.9687677160745225e-05 1.3628240470994752e+00 -5.7399990868183242e+00 -7.4017701409701884e+00 4 65 -8
264 108 3 -2.8255671629338897e-04 2.4557063094321157e+00 -5.9584300813014144e+00 -7.6174251830786517e+00 4 65 -8
122 34 3 6.3748002710953267e-04 3.9058895540545957e+00 -6.2199214308605724e+00 -7.7626644931234123e+00 -16 -26 -10
377 167 3 -5.1839839176937713e-04 5.0015564860427260e+00 -3.2280075730524134e+00 -4.5988494985931938e-01 2 -11 2
75 9 3 -2.0486121798069599e-02 6.6565737040474957e+00 -4.6885538770999293e+00 -5.1989274213295804e+00 63 5 -15
12 1 1 1.6748751530480666e-05 1.0416542101817234e+00 -3.0498790320790645e-02 -3.2811536762550713e+00 0 0 0
11 1 1 -4.7371136470020225e-05 2.2745782458942894e+00 -4.0630249979519660e-03 -2.5365325198040796e+00 0 0 0
168 58 4 2.2493830989503489e-02 6.7336626997692264e+00 -4.8901070425441597e+00 -4.1212536473256369e+00 -22 -41 -36
68 6 3 -3.3303628007267938e-03 1.1923736020249073e+01 -6.5583305611123821e+00 -2.7382735145447503e+00 0 -1 71
74 9 3 4.3214280347408512e-03 7.4436357628008256e+00 -3.9402549370494704e+00 -5.9699100402968783e+00 63 5 -15
62 2 3 -2.7725312784172527e-03 8.1763664474059290e+00 -3.3068967990855733e+00 -6.7420353681601979e+00 27 -14 58
212 81 3 3.3865048297639783e-04 1.2328209338604827e+01 -2.2967841169641603e+00 -5.9419937703249213e+00 10 -11 -3
201 75 3 3.5676510763988367e-03 1.2913855525772716e+01 -5.7493947474707490e+00 -3.0295130191384483e+00 2 27 17
247 99 3 -2.5660498851588359e-03 1.2964813077578526e+01 -3.2304891086315739e+00 -4.9737311748621833e+00 -8 -12 2
135 41 3 -1.8393309672688762e-04 1.0276234981439764e+01 -7.3972066139662784e-01 -2.1486909689786580e+00 -7 12 -15
136 41 3 -5.2972710657905875e-05 1.0086594455886308e+01 -1.0058796433383843e+00 -5.8980291463859602e-01 -7 12 -15
98 21 3 1.4795120833556441e-05 9.3484543292294084e+00 -2.1907993864112667e+00 -2.2754471154784806e-01 20 -11 -22
206 78 3 -1.8057191081240209e-04 1.0488403933153190e+01 -6.6942575451377062e-01 -3.2442664024809935e+00 -7 4 -3
207 78 3 -2.4423933378172474e-04 1.0717391994627004e+01 -4.6343226707148560e-01 -4.8232275403810121e+00 -7 4 -3
211 81 3 1.5496194962130033e-04 1.1517334715714851e+01 -1.3766219678045049e+00 -5.4985866352486532e+00 10 -11 -3
61 2 3 6.6031527297393325e-04 8.7519586572294976e+00 -2.5655999232265616e+00 -7.6281341710134534e+00 27 -14 58
246 99 3 2.4925279142369999e-03 1.3424598966764343e+01 -3.9339715048111832e+00 -4.2120638588641199e+00 -8 -12 2
229 90 3 -6.4170041431797081e-04 1.2240935395507378e+01 -2.8731631884510778e+00 -7.4327289875850084e+00 2 -17 -18
200 75 3 -1.9766744946926831e-02 1.3954000125844503e+01 -5.0088824892104453e+00 -3.2851083438520030e+00 2 27 17
231 91 4 2.0982608923958188e-02 1.5016980043868516e+01 -5.1391439030421715e+00 -2.9249828352231932e+00 9 18 8
260 106 3 -1.7110169208691545e-04 4.5044415467073575e+00 -7.4001619973184152e+00 6.9587853603730867e+00 -20 -10 13
187 68 3 -3.5676611031529304e-05 3.9526988363084041e+00 -8.9669997803654198e+00 3.8963001179451990e+00 -50 -7 4
373 165 3 -2.0528876900655080e-05 3.1830420525858547e+00 -8.1666953657340198e+00 3.8343085226517046e+00 1 9 6