LAMMPS data file via write_data, version 3 Mar 2020, timestep = 10000000

207 atoms
4 atom types

-4.0000000000000000e+01 4.0000000000000000e+01 xlo xhi
-4.0000000000000000e+01 4.0000000000000000e+01 ylo yhi
-4.0000000000000000e+01 4.0000000000000000e+01 zlo zhi

Masses

1 12.0107
2 12.0107
3 12.0107
4 1.00794

Atoms # full

65 4 3 -2.0411701975248109e-03 -1.0492225678575986e+01 -2.0152297392166304e+01 -2.6310199203314863e+01 94 69 3
64 4 3 -4.8839589252941407e-04 -1.0985162787236490e+01 -2.0809765170329200e+01 -2.5421400488680746e+01 94 69 3
147 47 4 2.2173139069650252e-02 -7.1431886738222872e+00 -2.0186598190597326e+01 -2.6036643704346719e+01 5 -1 -14
166 57 3 -4.2011363160193715e-04 -2.3445767615925037e+00 -3.2989478419381165e+01 -2.0056378854684326e+01 11 29 -23
167 57 3 -4.2011363160146531e-04 -1.8123070585834729e+00 -3.2056590602373184e+01 -1.9523754160570846e+01 11 29 -23
63 3 4 2.2212964182114228e-02 -3.7261961285984455e+01 -2.0535477537414430e+01 -4.5873269701267345e+00 0 -30 26
72 8 3 -2.2704285266645266e-02 -3.6561982044516206e+01 -2.0053383873121916e+01 -5.2866102483398185e+00 -16 -4 19
107 26 3 5.5201496378293746e-03 -7.2531127451288420e+00 -1.8526673277465374e+01 -2.4446871724532148e+01 18 24 -10
106 26 3 -2.0908586585630891e-02 -7.2045165241445241e+00 -1.9364372092081279e+01 -2.5312015639959096e+01 18 24 -10
193 71 3 -4.2075497913970916e-04 -4.0993830153585691e+00 -9.7272707958221893e+00 -8.0409537826461808e+00 17 7 8
186 67 3 6.5501601000222953e-04 -3.4408119774508648e+01 -1.8504480761800828e+01 -8.0153377130893695e+00 -2 -23 19
8 1 1 -6.0863192150664713e-06 -7.3620267516766058e-01 -2.2560702584893710e+00 2.5436056284637911e+00 0 0 0
73 8 3 8.2992773722901925e-03 -3.5888762681963357e+01 -1.9580130966740271e+01 -6.0680399812767609e+00 -16 -4 19
185 67 3 -3.0058900222437110e-03 -3.5062598997278876e+01 -1.9034051110410001e+01 -7.1187120933855574e+00 -2 -23 19
28 1 1 -3.5509137398637147e-05 -1.9192214509358541e+00 -2.2574274107791443e+00 1.7984234492351825e+00 0 0 0
192 71 3 -4.1972442567672630e-04 -4.0272166041432333e+00 -8.5967204964218951e+00 -7.6587542778844577e+00 17 7 8
17 1 1 -1.5136918745420336e-04 -1.7876036645935844e+00 -1.3716753779109432e+00 -2.5725391902289756e+00 0 0 0
18 1 1 -5.6925755986696192e-05 -8.1453187983384778e-01 -6.5883299538437579e-01 -3.3431853692528533e+00 0 0 0
36 1 1 -4.4558772539657343e-05 -2.7513896962224935e+00 -6.6377242254567170e-01 -1.8232666577517709e+00 0 0 0
37 1 1 -1.8438462735507338e-04 -1.4795016911285406e+00 -2.5898185423725208e+00 -1.8115857684694925e+00 0 0 0
47 1 1 -1.9672953568669604e-04 -2.3144124502875445e+00 -2.5822950560960916e+00 -6.3135618316997077e-01 0 0 0
58 1 1 2.3419559722692024e-05 -3.0443784744109070e+00 -1.3635312161116719e+00 -6.5180250315502963e-01 0 0 0
38 1 1 -1.7847033796277584e-04 -1.3319538688857066e-01 -3.1216555648550015e+00 -1.8688329237106938e+00 0 0 0
111 28 3 1.4871642735138357e-04 -7.3286482259297570e+00 -2.9060605542512075e-01 1.6153377324655698e-02 24 25 9
120 33 3 -4.9271312753085272e-04 -8.4253453083712806e+00 -3.0835159899103979e+00 2.3350949580227107e+00 38 -26 7
121 33 3 -1.1442553389678228e-04 -8.1036067096030298e+00 -2.0659967305885800e+00 1.7038478314841714e+00 38 -26 7
110 28 3 -2.9158684052714434e-04 -7.7081131398693152e+00 -1.1009808435331705e+00 9.3517086538800676e-01 24 25 9
174 61 3 -1.3268599212226673e-04 -1.1302593941787106e-01 -1.9684101848530247e-01 6.7647825053139972e+00 10 -4 11
132 39 3 -5.2100517849185124e-04 -1.5821502106437448e+00 -2.1614560072455928e+00 6.6934687113184470e+00 4 35 -20
131 39 3 -9.3950554391139529e-06 -8.1876338859314546e-01 -1.2239218505221812e+00 6.7029431794907293e+00 4 35 -20
7 1 1 5.4567929665874822e-05 -4.0197891359299481e-01 -1.1844610208881690e+00 3.3975843257840324e+00 0 0 0
48 1 1 -1.5260568158551036e-04 -1.6823107951233520e+00 -2.9638847083369249e+00 5.7356735916139756e-01 0 0 0
27 1 1 -3.8687525559886332e-05 -2.7771053879232652e+00 -1.1571826758300332e+00 1.7936263667365862e+00 0 0 0
59 1 1 -5.1607583757495856e-05 -2.7529086209233883e-01 -3.4141871723479622e+00 5.7555063164266584e-01 0 0 0
57 1 1 1.4380563458364637e-05 -3.3501948616440860e+00 -7.1489901986600035e-01 6.0443832633474037e-01 0 0 0
158 53 3 -4.2632986868115785e-04 -1.0360389976851893e+01 -1.5317676806824178e+01 2.3806101492751747e+01 -24 -25 -11
159 53 3 -4.2632986868149092e-04 -9.3501420198288212e+00 -1.6069894156737035e+01 2.3897831869984191e+01 -24 -25 -11
190 70 3 -4.2152395965455725e-04 -2.9093452611715851e+01 -7.0255261002218816e-01 2.9453432458351752e+01 5 -9 -19
164 56 3 -4.1983881871363038e-04 -1.6456451017828481e+01 1.5762472535752062e+01 -2.5328213742022029e+01 -10 10 -37
165 56 3 -4.1983881871412998e-04 -1.6878045680827576e+01 1.6816955759075977e+01 -2.4948405853078224e+01 -10 10 -37
76 10 3 -1.0657241502740056e-04 -7.0604546219679118e+00 1.1112395011331795e+01 -1.9518969912840706e+01 38 -1 52
67 5 3 -1.1823871846304568e-04 -7.9175142362231652e+00 1.1308473065543375e+01 -1.8545859622511983e+01 28 24 6
66 5 3 -4.9568774246600000e-04 -8.6831028242238499e+00 1.1551099299117981e+01 -1.7583097821788311e+01 28 24 6
77 10 3 -4.9762726733840190e-04 -6.1800574960372314e+00 1.1068704777896029e+01 -2.0355460778326478e+01 38 -1 52
71 7 3 -4.5977270249528135e-04 -6.9446420323878097e+00 5.1935055564525545e-01 -7.4026485493807093e-01 56 33 16
15 1 1 2.1169376805179642e-04 -1.8726295996985443e+00 1.4612611875071697e+00 -2.5503016958612266e+00 0 0 0
16 1 1 1.1594068301826362e-04 -8.5936477007603473e-01 7.1633306201225655e-01 -3.3046461361423138e+00 0 0 0
34 1 1 6.7591684649667347e-05 -1.4900786932716119e+00 2.6402593347632775e+00 -1.8060293426813978e+00 0 0 0
35 1 1 9.2242849807300242e-05 -2.8905034752606071e+00 7.7237193852000741e-01 -1.8398378395682544e+00 0 0 0
45 1 1 2.1946120043246642e-04 -3.1268713466258626e+00 1.4542315831679167e+00 -5.8617452626118738e-01 0 0 0
56 1 1 2.1603118144565558e-05 -2.2819985691568956e+00 2.6162456954034945e+00 -6.2140115421894615e-01 0 0 0
33 1 1 4.9476225455020659e-05 -9.3204089176340293e-02 2.9788485998190040e+00 -1.7832692723421892e+00 0 0 0
70 7 3 8.2714283989997195e-04 -6.4872761031746995e+00 1.5766158096126244e+00 -1.3099937125916856e+00 56 33 16
90 17 3 -2.6152061601228821e-03 -6.1913534665057659e+00 2.5852141467046592e+00 -1.9404366340061208e+00 7 34 68
89 17 3 4.0416765872259702e-03 -5.9744312932607055e+00 3.4789985539376933e+00 -2.7363355827989868e+00 7 34 68
103 24 3 -2.0229713807468387e-02 -5.6178668166115706e+00 4.4884530181997349e+00 -3.5747390225204549e+00 -11 -4 48
104 24 3 3.3597900519462057e-03 -4.3111084927479286e+00 4.3030455152331513e+00 -4.0193840051634711e+00 -11 -4 48
105 25 4 2.1530394196159125e-02 -6.2884244150970963e+00 5.2477380922835497e+00 -4.0176086368438924e+00 35 32 41
130 38 3 -2.0376062815064891e-03 -3.0615105940758185e+00 4.2041230917510557e+00 -4.3775611856382728e+00 -4 -2 -15
129 38 3 7.6915915487540953e-04 -1.8469588306645572e+00 3.9284670995808506e+00 -4.7433040254947425e+00 -4 -2 -15
204 77 3 -1.7632829277049178e-04 -5.7856695265910763e-01 4.6554000388759503e-01 -6.8780765387414657e+00 -22 1 -6
205 77 3 -3.3833967279620070e-04 -1.5923157351816826e+00 1.0193336591719961e+00 -7.3108334006645084e+00 -22 1 -6
123 34 3 -2.3270245385286284e-04 -6.0231950037019122e-01 3.6744776394788339e+00 -5.0889590886256206e+00 -16 -26 -10
144 45 3 8.3798578530816514e-05 -9.9113329602899070e-01 7.2973441112200890e+00 -4.4655325507612318e+00 2 -7 -1
143 45 3 -5.7582609497408566e-04 -1.9941600936671693e+00 7.7620837477483748e+00 -5.0299285646463074e+00 2 -7 -1
151 49 3 -9.7093276162051045e-06 -3.0091100966423006e+00 8.2813786789843480e+00 -5.6578776404116518e+00 -10 -8 12
150 49 3 -1.6634550947099702e-03 -3.9835766640874284e+00 8.7709239746032246e+00 -6.1368070217239898e+00 -10 -8 12
68 6 3 -4.2329191987869330e-04 -1.7953394996463754e+01 1.8656753553488606e+01 -7.1022676921744787e-01 16 4 52
69 6 3 -4.2329191987866555e-04 -1.8568711401517838e+01 1.9695793626604630e+01 -9.4998315405620115e-01 16 4 52
6 1 2 3.0584710416017846e-06 -2.4703499999999998e+00 6.8199999999999997e-03 2.6358700000000002e+00 0 0 0
46 1 1 1.4188670826421716e-04 -3.3872839345631633e+00 6.9887733805436381e-01 6.3819857187088125e-01 0 0 0
25 1 1 -3.7720673447404901e-04 -1.8743306069959929e+00 2.2840176790478459e+00 1.8321933767760814e+00 0 0 0
26 1 1 -1.3244026892721139e-04 -2.8530954936233184e+00 1.1831369931881011e+00 1.8826674967217853e+00 0 0 0
55 1 1 -6.2787845821774685e-04 -1.6487414738353621e+00 3.0132048794384887e+00 6.0715479354156021e-01 0 0 0
3 1 1 -7.0439654655495010e-07 -3.8250471501109828e-01 1.1689239736654844e+00 3.4190361835145651e+00 0 0 0
44 1 1 -9.4018973530621622e-04 -2.9733154434470155e-01 3.4703233365819539e+00 6.3218976644200775e-01 0 0 0
5 1 2 2.5214194997331615e-05 -1.2510300000000001e+00 6.0000000000000001e-03 3.3899499999999998e+00 0 0 0
4 1 1 -7.0326975791932395e-04 -6.9484156380183781e-01 2.3376935431252268e+00 2.6239804329967535e+00 0 0 0
189 69 4 2.2715959627469029e-02 -1.0941770473948395e-01 6.1584089473014165e+00 2.6019049682542268e+00 7 -9 2
162 55 3 -4.1985591955268076e-04 -2.6260518455790546e+01 1.9779329315410486e+01 1.5589690536743694e+01 -14 -9 -34
191 70 3 -4.2152395965444622e-04 -2.9688224148370875e+01 2.3946779562397669e-01 2.9935916051238522e+01 5 -9 -19
198 74 3 -4.4662552873311889e-04 -1.5478357111799095e+00 2.9308749301302509e+01 -2.3146395029580162e+01 -4 15 -4
199 74 3 -3.3140928170971584e-04 -1.3893234522204654e+00 2.9497019127464014e+01 -2.1964113418330314e+01 -4 15 -4
163 55 3 -4.1985591955223667e-04 -2.7323632550136519e+01 2.0329825554313334e+01 1.5576387171375677e+01 -14 -9 -34
154 51 3 -4.2325860289058048e-04 2.6705408109716757e+01 -2.8915855833902111e+01 -3.8910641478957551e+01 16 18 20
155 51 3 -4.2325860289074702e-04 2.7161824440243613e+01 -2.9812299409821563e+01 -3.8199038197593133e+01 16 18 20
203 76 3 -4.1942524166843631e-04 7.3852113471812375e+00 -2.0716807661772894e+01 -3.5557023916152538e+01 3 -13 3
202 76 3 -4.1942524166885264e-04 7.8156097773778042e+00 -2.1704114369030027e+01 -3.6063156391836650e+01 3 -13 3
119 32 3 -4.2116637160832804e-04 6.8189347094434289e+00 -3.4522978520857905e+01 -8.0838030323603096e+00 40 31 -39
128 37 3 -4.1922262403062960e-04 2.7861580791204261e+01 -3.3252566721074174e+01 -1.3698810539972662e+01 -28 56 -24
127 37 3 -4.1922262403013000e-04 2.7215384510478149e+01 -3.3241490562966206e+01 -1.2696066212713513e+01 -28 56 -24
118 32 3 -4.2116637160816150e-04 6.9294223456272181e+00 -3.4612486928896807e+01 -6.8815064411002105e+00 40 31 -39
176 62 3 -4.2013715201197344e-04 1.1792382166007904e+01 -2.0158958298846418e+01 2.3632295865541941e+01 14 30 14
175 62 3 -4.2013715201136281e-04 1.1115003575342030e+01 -2.0933096441210630e+01 2.3036587477991500e+01 14 30 14
194 72 3 -4.2287502770671503e-04 5.3127196539424979e+00 -3.6032327193189644e+01 3.2167525191124206e+01 -2 11 3
195 72 3 -4.2328063545254979e-04 6.0361542871991549e+00 -3.6444623067235135e+01 3.1255173014031396e+01 -2 11 3
94 19 3 -4.2442375209586491e-04 2.9404616855849062e+00 -2.8760555959241312e+01 2.7207663264161045e+01 1 17 4
93 19 3 -4.2034282255792865e-04 2.6546559613104352e+00 -2.9933076814221440e+01 2.6979766876374676e+01 1 17 4
187 68 3 -4.2112497381541214e-04 1.1822025450392605e+01 -2.6059949740038039e+01 3.4546709003497632e+01 -10 -24 11
188 68 3 -4.2112497381541214e-04 1.1714851178166233e+01 -2.4882154897788748e+01 3.4290290552924155e+01 -10 -24 11
126 36 4 2.3906963370709425e-02 6.3033567040199179e+00 -3.8351931076923624e+00 -4.0760690160498685e+00 13 46 -21
109 27 3 9.0748517395754444e-03 4.6131858316963834e+00 -2.7453256308103215e+00 -4.8586176646565526e+00 37 31 -50
19 1 1 5.4980151235138608e-05 8.6955342351635845e-01 -2.3562940670137573e+00 -2.5629161611015987e+00 0 0 0
39 1 1 -1.3337188451987766e-04 2.0847229642825700e+00 -2.3310536879415356e+00 -1.8118456119571624e+00 0 0 0
40 1 1 6.5244877711868464e-05 2.9350530846644598e+00 -1.1663688073112342e+00 -1.7479639511048284e+00 0 0 0
49 1 1 -1.8266875564717372e-04 1.8041847531661561e+00 -3.1226076918007419e+00 -6.1247157534980057e-01 0 0 0
52 1 1 8.1466853765987252e-05 3.4512121639545188e+00 -7.4911862323408185e-01 -5.0451426165836732e-01 0 0 0
60 1 1 -6.6818150204962790e-05 4.5242960913725294e-01 -3.5182542382356408e+00 -6.5163345819050533e-01 0 0 0
20 1 1 8.7513164952266256e-05 5.5505505233400221e-01 -1.1324723893291051e+00 -3.3037064991113860e+00 0 0 0
148 48 3 -1.5558820976535603e-05 5.2160864139243668e-01 -2.5211113638320859e-01 -6.5405809565112509e+00 15 1 -9
149 48 3 -6.3430026033490378e-04 1.4441030732967037e+00 -8.5261085353949717e-01 -6.1907126826477104e+00 15 1 -9
115 30 3 1.3255706016681509e-03 2.5094783490254287e+00 -1.5132866289622571e+00 -5.6726430691482976e+00 32 33 -25
114 30 3 -3.6553081253459380e-03 3.4386063768292656e+00 -2.0788860290029114e+00 -5.2992977334325202e+00 32 33 -25
108 27 3 -2.4225740404660190e-02 5.5688512261284311e+00 -3.2081050912386062e+00 -4.4597594910916838e+00 37 31 -50
141 44 3 -5.1948493742933269e-04 6.2531030760000039e+00 -1.1419947120997418e+00 -2.4586275317376778e+00 -19 2 4
61 2 3 6.4304465093023566e-04 5.7913078417913759e+00 -2.1318160589472102e-01 -3.2035407065536807e+00 27 -14 58
206 78 3 -6.0650491671976337e-05 1.3496493642271529e+01 -6.1917679298718191e+00 2.4495382781157713e+00 -7 4 -3
142 44 3 -9.6476955014327542e-04 6.7021792123722355e+00 -2.0901608752217746e+00 -1.6930415106542103e+00 -19 2 4
101 23 3 -1.3263420832288833e-03 7.2197479375592861e+00 -3.0593386551560307e+00 -1.0355794882370117e+00 36 -5 -65
102 23 3 -8.7093117832731659e-04 7.7065377240314330e+00 -4.0190232417464795e+00 -4.3279068820478939e-01 36 -5 -65
82 13 3 -5.0152075045056810e-04 1.7572787958830332e+01 -1.3700313650793694e+01 4.0201703879752477e+00 -29 16 -45
80 12 3 -2.9048129707767156e-03 9.4813352299396101e+00 -7.7288451831300202e+00 2.4128168678604149e+00 63 -7 19
78 11 3 8.1424714390383873e-03 1.0109192593580934e+01 -8.7127216119129240e+00 3.3452486416618181e+00 58 -6 10
79 11 3 -2.2028887941274930e-02 1.0687811870831590e+01 -9.4195873803522669e+00 3.9947549611198205e+00 58 -6 10
84 14 4 2.1927199200927963e-02 1.1182451348847964e+01 -1.0159174189021988e+01 4.6817907143702167e+00 46 -22 31
81 12 3 1.2710790026371210e-03 9.0188597501868735e+00 -6.9254883323218710e+00 1.7327819553248354e+00 63 -7 19
83 13 3 1.1700670781947253e-05 1.7017933185998572e+01 -1.2585699770656991e+01 3.9443469325511158e+00 -29 16 -45
207 78 3 -4.3051715227118009e-04 1.4054655541808708e+01 -7.2288563331364237e+00 2.9087190013100672e+00 -7 4 -3
181 65 3 -2.3921228057895150e-04 1.4706014945112504e+01 -8.2061756273989470e+00 3.1586852791829299e+00 -6 5 -3
182 65 3 -9.3321345200512995e-04 1.5316198525403330e+01 -9.3191352769609299e+00 3.4399262538585851e+00 -6 5 -3
171 60 3 -2.9972958038429476e-04 1.5865940738775086e+01 -1.0424600239007747e+01 3.6789271451171213e+00 -8 2 -2
172 60 3 -6.8482023080580767e-04 1.6377817092974379e+01 -1.1486378357329095e+01 3.7899076734873978e+00 -8 2 -2
50 1 1 -1.1614656572966897e-04 2.3772960681402653e+00 -2.6414055690175791e+00 6.2720225132191754e-01 0 0 0
51 1 1 -6.4990873405688931e-05 3.1675109027112485e+00 -1.4757976084965188e+00 6.4248584796425579e-01 0 0 0
21 1 1 -4.3874032888968628e-05 2.8929087165187708e+00 -7.4314559096632293e-01 1.8301498068891986e+00 0 0 0
9 1 1 -1.1193686832427358e-05 9.4339064228120528e-01 -7.2232448809616356e-01 3.3564823159052821e+00 0 0 0
29 1 2 -1.3648411575212238e-04 2.4848000000000001e-01 -3.0825000000000000e+00 1.8628700000000000e+00 0 0 0
30 1 1 -1.2122116178773373e-04 1.6370388637203468e+00 -2.6583285572592272e+00 1.8612179331878549e+00 0 0 0
10 1 1 -4.2601126593204419e-05 1.9166188296578717e+00 -1.4182341779757530e+00 2.6081179923482569e+00 0 0 0
100 22 3 -8.2209497213797667e-05 9.2469014926554927e+00 -1.9995980823071394e-01 3.8665386153157366e-01 -2 -4 -21
135 41 3 -7.5057773048503584e-06 1.2830044935290562e+01 -5.2503407373723796e+00 1.9954257499418322e+00 -7 12 -15
98 21 3 -8.3918276715458373e-05 1.1524715448565141e+01 -3.2726522532255662e+00 1.0890997703794747e+00 20 -11 -22
87 16 3 -5.0130548383367501e-04 8.5986109169382505e+00 -5.9700031452398772e+00 9.1517767914959580e-01 -13 24 -2
88 16 3 -3.1125843519413943e-04 8.2479104600744169e+00 -4.9614291757128193e+00 2.2639173567197213e-01 -13 24 -2
97 21 3 -1.7795075621981904e-04 1.0809938640422347e+01 -2.1768167349627525e+00 8.6420509139585477e-01 20 -11 -22
99 22 3 -3.7106326612287854e-05 1.0027003702305281e+01 -1.2086539887034440e+00 7.0939064608045976e-01 -2 -4 -21
136 41 3 -3.3752957671648320e-05 1.2213952168364957e+01 -4.2892146268622620e+00 1.4615430798354845e+00 -7 12 -15
11 1 1 2.5417684799747633e-04 2.5121531453691079e+00 -1.9788729534206902e-02 -2.4194569472161862e+00 0 0 0
156 52 3 -4.1947684987625466e-04 2.7209084606808165e+01 -5.8969439493416349e+00 3.4576055244053364e+01 -37 -2 -11
157 52 3 -4.1959519473130924e-04 2.6765213277425651e+01 -4.8681787960170748e+00 3.4988362912267974e+01 -37 -2 -11
197 73 3 -4.2304047909058617e-04 3.5613694257397910e+01 -2.4696360235547279e+00 3.4643318528431848e+01 11 9 -6
196 73 3 -4.2356581662483794e-04 3.6400624414013613e+01 -1.5757770850373185e+00 3.4321706854302981e+01 11 9 -6
13 1 1 2.2677988425572840e-04 8.5812142221196297e-01 2.2844274700075418e+00 -2.5160183756302610e+00 0 0 0
31 1 1 1.7600327310483789e-04 2.8993102786270999e+00 1.1397401816004011e+00 -1.6692475257265342e+00 0 0 0
32 1 1 1.2750238560943136e-04 2.0229590592251467e+00 2.2754555860562808e+00 -1.6828293312965743e+00 0 0 0
41 1 1 3.0734009244964139e-04 3.6109067187803747e+00 6.8180218303178930e-01 -5.0910074698426333e-01 0 0 0
43 1 1 6.3448302630560172e-05 4.5062701282043122e-01 3.4223478949988224e+00 -5.4518675353702895e-01 0 0 0
54 1 1 1.1138286700717974e-04 1.7591888457438452e+00 2.9651172340999774e+00 -5.0083328414074690e-01 0 0 0
14 1 1 1.4356322935356054e-04 4.9822376529364432e-01 1.1515775338966436e+00 -3.2947615835049837e+00 0 0 0
122 34 3 5.6223023011286316e-04 6.1734854295884134e-01 3.4199240016024004e+00 -5.3644016443491100e+00 -16 -26 -10
124 35 3 -2.2979317205009328e-03 1.8357842090957270e+00 3.0851712217931242e+00 -5.5000457201016921e+00 6 9 14
125 35 3 3.4235698815265406e-03 2.9938282082988654e+00 2.7828975633853359e+00 -5.6060019433189519e+00 6 9 14
138 42 3 -1.2576758337747712e-04 2.0751913238918163e+00 5.5831707335228087e+00 -2.9595377318917149e+00 -6 -10 -8
137 42 3 -1.3076576667302164e-04 3.0886010048624399e+00 5.0856824150275974e+00 -2.6479984339900100e+00 -6 -10 -8
112 29 3 -9.1687127604191121e-05 4.9853299290264363e+00 3.7624731267541733e+00 -1.6801193287060601e+00 -5 15 15
113 29 3 2.7475069240258387e-05 4.0859024122640966e+00 4.3971177910574966e+00 -2.1405722790965931e+00 -5 15 15
134 40 3 1.2938876143148148e-05 1.0446301791813637e+00 6.1588756450394389e+00 -3.4605107140819391e+00 12 -7 7
133 40 3 -2.1886020810861495e-04 2.8135845270605025e-03 6.7550008857446473e+00 -3.9146919740429098e+00 12 -7 7
116 31 3 1.0506494417518789e-04 5.9680085198641484e+00 3.0770973116624365e+00 -1.2231901702730235e+00 0 34 -5
75 9 3 -1.9915999768017216e-02 4.2813503881836121e+00 2.3461100757314490e+00 -5.6648907834122211e+00 63 5 -15
168 58 4 2.1450949559389698e-02 4.8781117821345266e+00 2.5158685072583289e+00 -6.5733911855289389e+00 -22 -41 -36
74 9 3 3.7081023261055571e-03 4.6900960698950067e+00 1.4545480405229119e+00 -4.6987162076709348e+00 63 5 -15
62 2 3 -2.2694715803807455e-03 5.2244976460999117e+00 5.9407657922315715e-01 -3.9026450282816896e+00 27 -14 58
91 18 3 -1.1727966380898486e-04 4.9235988558996304e+00 1.9658665766841121e+01 1.1329044241336592e+00 54 50 -40
117 31 3 -1.8651932021289397e-04 6.9084093963175501e+00 2.4570374450862129e+00 -8.3606601236731060e-01 0 34 -5
86 15 3 -9.4313526174533147e-06 7.7444666834568467e+00 1.6996131530800616e+00 -4.8508730421037616e-01 17 -30 -12
85 15 3 -6.8568137147922981e-05 8.5559494619568124e+00 7.7851578236038876e-01 -4.0980409136326841e-02 17 -30 -12
145 46 3 8.6061757863905436e-03 2.0347605859375584e+00 5.9443177097056070e+00 2.0629684563528747e+00 29 -18 -2
183 66 3 -3.1367210087110131e-03 3.4340750573890220e+00 5.7024473798918809e+00 1.6933212148130830e+00 25 23 4
184 66 3 1.2297321441409464e-03 4.5440491285360904e+00 5.5770331108718016e+00 1.4274381669257090e+00 25 23 4
152 50 3 -3.2443490739415479e-04 5.8422431973193270e+00 5.4383258465924786e+00 9.9008948590923807e-01 34 -4 -12
2 1 1 -6.5809871604698145e-05 1.9260960621237364e+00 1.4384897005458352e+00 2.6184265896938772e+00 0 0 0
42 1 1 1.0066270549936515e-04 3.2143458550742912e+00 1.3929907554538026e+00 6.7454761873433722e-01 0 0 0
1 1 1 8.9453375865997369e-05 9.8393450813199645e-01 7.0609659720400775e-01 3.3967507468821543e+00 0 0 0
22 1 1 -5.6126531688710513e-05 2.9244017330441165e+00 6.8951382466264977e-01 1.8789617229368989e+00 0 0 0
53 1 1 -4.3054521285078307e-05 2.4691999489185861e+00 2.6315221590969582e+00 6.7152494782165084e-01 0 0 0
24 1 2 -9.2461235181383848e-04 2.5366000000000000e-01 3.0918600000000001e+00 1.8623700000000001e+00 0 0 0
23 1 1 1.3108344145453454e-04 1.6029297855845386e+00 2.5762950698064957e+00 1.8192792366175432e+00 0 0 0
169 59 3 -7.7238170517343607e-04 1.6616725021066601e+00 3.2377096236581964e+00 6.7324686080887197e+00 2 0 3
170 59 3 -1.0618694161916575e-04 1.0758077764184630e+00 2.1152757016202837e+00 6.6636981380287592e+00 2 0 3
146 46 3 -2.2646319659032618e-02 9.5373282290605033e-01 6.1042107233886318e+00 2.3488711326037328e+00 29 -18 -2
173 61 3 -1.4620562242179114e-04 5.0139668880659871e-01 1.0039618015436251e+00 6.7192194972363790e+00 10 -4 11
153 50 3 -3.3535414439228584e-04 6.9536990036370065e+00 5.4049630430192774e+00 5.8217928292933496e-01 34 -4 -12
92 18 3 -4.9938086593737108e-04 5.3192006221010208e+00 1.8547584199244955e+01 1.5445996285208470e+00 54 50 -40
12 1 1 1.2657364916644591e-04 1.3525211334713130e+00 4.9865927737419012e-02 -3.1902480623150264e+00 0 0 0
179 64 3 -4.2292912007993455e-04 1.4963994209592089e+01 2.3627410915421315e+01 -3.9783168027724052e+01 1 27 5
200 75 3 -4.1706986574402416e-04 3.2934624973883784e+00 3.0937873448871407e+01 -1.9719541946857571e+01 -9 17 11
201 75 3 -3.6427446691753018e-04 2.2523152201849648e+00 3.1204426856684055e+01 -1.9147420707773762e+01 -9 17 11
161 54 3 -4.2036403616943496e-04 3.4420042652426943e+01 3.3322588365766983e+01 -1.0140165549397646e+00 1 -7 -20
160 54 3 -4.2036403616943496e-04 3.5620137821044004e+01 3.3275285445390260e+01 -1.0524515235345218e+00 1 -7 -20
140 43 3 -5.0087837294640614e-04 4.1748883174497182e+00 2.1782283430833242e+01 8.5390700118561022e-03 6 46 9
139 43 3 -1.1134168447243797e-04 4.5126923846687896e+00 2.0743555531527402e+01 5.8599154932119901e-01 6 46 9
178 63 3 -4.2120250466412545e-04 1.3019236050206864e+01 3.6269912073897245e+01 6.7363906309212700e+00 -9 -6 -6
177 63 3 -4.2120250466387565e-04 1.2045302611798148e+01 3.5533033801037696e+01 6.8475541991916051e+00 -9 -6 -6
96 20 3 -4.2058431984562383e-04 1.5113748303991679e+01 2.1091549173139253e+01 1.8889600088590530e+01 30 -17 -42
95 20 3 -4.2058431984562383e-04 1.5942150906764843e+01 2.0295344362292749e+01 1.9249978180938708e+01 30 -17 -42
180 64 3 -4.2292912007999006e-04 1.5226720667161249e+01 2.4730893066266411e+01 3.9732580151953961e+01 1 27 4

Velocities

65 5.6966822215690242e-03 4.5845670096038979e-03 3.4915207052947381e-03
64 2.0068386009992087e-03 -3.7624840702504417e-03 -2.5812485711237633e-03
147 3.9711805845643489e-02 -2.1090893530822132e-02 -2.1813298750645552e-03
166 1.0106941946420797e-03 -2.1085209755851275e-03 -3.5829750968022303e-03
167 -3.1599111375022544e-03 -1.6347021343784869e-03 -1.5935383183560809e-03
63 -3.6339466177760325e-03 2.6681807053946297e-02 -2.2601686975287971e-02
72 1.8798773172015331e-03 -9.6948964343442675e-04 -6.0957048752156885e-03
107 1.6481309047935299e-03 -5.2750098530931116e-03 3.4548081819236472e-04
106 -1.5019931294972184e-03 -4.7614419746619258e-03 4.4751826154678029e-03
193 3.0211216887874571e-03 -1.1001747832242478e-03 -1.2968220247835359e-03
186 -1.3787212479049165e-02 -5.8919072778096321e-03 5.6003174934292623e-03
8 2.3798402854181468e-03 -6.2371407462455146e-03 -2.1777393820698304e-03
73 4.4862494082802545e-03 -1.8545555925980756e-03 1.6056535672182445e-03
185 -7.4813281396486739e-04 -1.6473534316806271e-03 -4.7999955114611066e-03
28 -8.0244455086202248e-04 1.0325982593685839e-02 4.0496788612019727e-03
192 -1.3004624149108544e-03 7.0431406560130562e-03 -1.3445248565013996e-06
17 6.0332673432930781e-03 -7.1923480431041291e-03 7.5711489332555191e-04
18 -1.9257525112441345e-03 -4.4772556623800539e-03 -3.9661558681239354e-03
36 1.0280635944149115e-03 -2.1114280082567701e-03 1.4746369892542327e-03
37 3.4607794819220107e-03 1.5080927862688386e-03 8.7036159359575181e-04
47 -4.7332195696305618e-03 -7.1777788002158876e-03 2.5846181717874193e-03
58 -2.9626935484760637e-04 8.3103230839688149e-04 2.3084099326276487e-03
38 3.0547008598535014e-03 -3.0256429368074752e-03 -5.0608617209481413e-03
111 3.2164957552120216e-03 2.4002798704981089e-03 -1.0593357269188370e-03
120 6.7768591080995411e-03 -4.8965251732841885e-04 6.7330534184178647e-03
121 -2.0203205029976877e-03 -5.1319640984156126e-03 -1.1031483686924954e-02
110 -3.8451924525506960e-03 -3.0956491208135464e-04 1.9321916961163594e-03
174 8.1809411861171149e-04 2.3311627257710764e-03 3.8162327872675911e-03
132 2.1066169039428327e-05 3.1390371089545827e-03 -1.0669024807268700e-03
131 1.3919587844274091e-03 -3.0182758966833308e-03 6.1770036205310687e-03
7 -2.1012550954062727e-04 -1.0837946909914260e-02 4.0325017167674190e-04
48 5.0557121237111216e-03 3.1331515299160805e-03 -3.0013975051321621e-03
27 -3.8351524734868197e-04 7.1765401030944478e-04 -1.6625596714534500e-03
59 -4.3951471398430133e-03 -5.1709208839341696e-03 5.7588998379586791e-04
57 2.5775532930794286e-03 2.4369270787232499e-03 -2.4581554805316388e-03
158 1.9298142740641084e-03 4.5885264344324474e-03 4.8520293237696507e-03
159 8.3940737980789729e-03 -2.5219343008522094e-03 -4.9319764684008487e-03
190 7.4239295704001725e-04 1.2290171826847508e-02 1.7627692719177692e-04
164 -3.6589128791746591e-03 6.8554891724567548e-03 -9.7249924627264056e-04
165 2.0760550194467800e-03 -6.2294602216355173e-03 2.1733516738215021e-03
76 8.8031622737736719e-03 -6.8619250030392959e-03 -6.3824481384429695e-03
67 2.9365987005792356e-03 -3.3615664545874162e-03 -1.9072015267022123e-03
66 8.7836255612145711e-03 4.0682319938904711e-03 4.3448169052157423e-03
77 -4.7684832091231932e-03 9.4383002922713991e-04 -2.1610610476421794e-03
71 -3.7787068621678633e-03 -3.5622074543793835e-03 5.0032410799468385e-03
15 7.8008804158566586e-03 3.1074345829515100e-03 5.8655286807394807e-04
16 -5.8882537672134442e-03 -4.5775978410092077e-03 -1.1136681427294903e-03
34 1.3132024874765642e-03 7.3683879612569528e-04 -5.7971942135753981e-03
35 4.5786540764550651e-03 1.0607298661325865e-03 1.8256279092834105e-03
45 3.6254155556222694e-03 -1.9569590659650948e-03 -4.1202610997150271e-03
56 8.5928238602774962e-03 6.1829167620607566e-03 -9.4833606898425378e-04
33 -2.9400505342896842e-03 5.8908862648055869e-03 -6.7690468452177325e-03
70 -1.6849408649055955e-03 -1.7839129446534156e-05 3.2154565161600620e-03
90 -8.5633696185957091e-04 -1.0289025253035771e-03 3.8059982291259145e-03
89 -2.7385427304570283e-04 -1.0067345816897758e-03 7.3798843496422923e-03
103 -1.7879721900899768e-03 6.8784152833596315e-03 -6.0969638152162274e-03
104 -3.4281974988513322e-03 -5.0417984520597075e-03 -3.2051235016414825e-03
105 3.8657913572818369e-03 8.1176215222608650e-03 -1.5372123484625221e-03
130 6.4285215124740801e-04 4.0674154623306907e-03 3.8927835805662933e-03
129 4.3479811273001113e-03 3.0590994233835036e-03 1.6266101634536644e-03
204 -2.1385693120498342e-03 -4.3658026548277357e-03 8.7266276286059857e-03
205 3.6179403792104942e-03 2.0784267270575118e-03 -3.1654259624806997e-03
123 5.5155980918791762e-03 -2.5065670667163598e-03 -3.2256880145945008e-05
144 -7.4754217255199647e-03 7.6900279050165265e-03 7.8422729313672879e-03
143 -2.5017628308590311e-03 3.9474821177385173e-03 -3.2841895538357740e-03
151 -4.6939612750211386e-03 7.4070033182408500e-03 -1.6197280293378906e-04
150 1.3570920362015605e-03 -2.8959805339376382e-04 -6.7442701828215740e-03
68 -2.2138248754769948e-03 3.9015370644980817e-04 2.4012791807016834e-04
69 -3.9578619308455135e-03 1.6978529297547082e-03 1.6051770695216705e-03
6 0.0000000000000000e+00 0.0000000000000000e+00 0.0000000000000000e+00
46 -7.5306058238854608e-04 2.1388900299404206e-04 5.0825557386075769e-03
25 -1.3252916019074552e-03 3.8334481708467700e-03 -1.5039064787822560e-03
26 6.9982129664998916e-03 3.3339727383212959e-04 -3.5494942046370558e-03
55 -3.0966003575841664e-03 -4.0292847616931636e-03 6.3445582552529847e-03
3 7.7616644906354764e-03 -3.1098663147302052e-03 5.1989135374902427e-03
44 -2.6814464886732881e-03 -4.0154217244605531e-03 -1.4419391919624212e-03
5 0.0000000000000000e+00 0.0000000000000000e+00 0.0000000000000000e+00
4 -2.2348538821510507e-04 -3.1534775027223473e-03 -6.1288462559381016e-05
189 -4.6738303662938518e-02 2.0212672768185440e-02 1.3285061123950875e-02
162 -1.2763984030311273e-02 -2.1270546074428367e-03 2.3786289973686172e-03
191 -1.0775157796618317e-03 7.5875957668657037e-03 -1.9450824569845889e-04
198 -1.3479002821600184e-03 -3.2178458898798881e-03 -3.7103812131714497e-03
199 3.6877466629720336e-03 7.0978654696892667e-03 4.2541354651885535e-03
163 3.1697793043866044e-04 6.6166837233626547e-04 -4.4168235521099110e-03
154 3.6605282064980345e-03 -1.8244638259713240e-03 -7.6847636183539104e-03
155 5.5812581586172855e-03 -2.4601803741379174e-03 -2.3473196250895748e-03
203 -2.8531190066607131e-03 2.5314297134682155e-03 7.1308500589294772e-04
202 -2.5257206446031155e-04 -3.1958158962037252e-03 -3.7541907247219250e-03
119 -2.8019316234445461e-03 4.4045256912074631e-03 6.3147913849975947e-03
128 -2.1488510456168304e-03 4.8452983148491949e-03 4.0195046619670750e-03
127 -1.7284744610333140e-03 -6.7754664163760514e-04 -9.0165379676422786e-03