LAMMPS data file via write_data, version 3 Mar 2020, timestep = 10000000

396 atoms
4 atom types

-4.0000000000000000e+01 4.0000000000000000e+01 xlo xhi
-4.0000000000000000e+01 4.0000000000000000e+01 ylo yhi
-4.0000000000000000e+01 4.0000000000000000e+01 zlo zhi

Masses

1 12.0107
2 12.0107
3 12.0107
4 1.00794

Atoms # full

375 166 3 -6.6429760612246591e-04 -2.7798421362754294e+01 -3.2688171679404221e+01 -3.4041790059569145e+01 17 -11 15
374 166 3 -6.6429760612254918e-04 -2.6851539844483899e+01 -3.2396459978614800e+01 -3.3369309056262701e+01 17 -11 15
353 155 3 -5.6788954503744771e-04 -2.6854184871117795e+01 -2.1302369077086439e+01 -2.6273091034879734e+01 -1 -35 48
354 155 3 -6.8977996669186692e-04 -2.6730225120467804e+01 -2.0136272057204792e+01 -2.6577402927173384e+01 -1 -35 48
388 173 3 -6.9915408316406635e-04 -3.1188579748102974e+01 -2.3342134777237714e+01 -2.2422650172154231e+01 -4 -6 -5
387 173 3 -5.6898706966934665e-04 -3.1115043218406200e+01 -2.3192893794876920e+01 -2.3610327111907974e+01 -4 -6 -5
320 138 3 -6.6449392225342852e-04 -8.6469586877483806e+00 -3.9998697216623583e+01 2.0502416470567827e+01 2 -31 24
340 148 3 -6.6586915959310211e-04 -2.2763031418067783e+01 -1.2842178247958824e+01 -3.5859298506023656e+01 -16 -1 17
339 148 3 -6.6586915955360593e-04 -2.3432500521163320e+01 -1.3156568109777155e+01 -3.6813692976572170e+01 -16 -1 17
81 12 3 1.3294304055302131e-03 -5.4661797331003870e-01 -2.9698829633728990e-01 -1.7571809319142851e+01 63 -7 19
329 142 3 -6.6445683720339765e-04 -2.1191304599731343e+01 -1.4965379412397262e+01 -6.8830344209919279e+00 11 -12 -15
328 142 3 -6.6445683720339765e-04 -2.0014832502022742e+01 -1.4896349452516372e+01 -7.1038342021013587e+00 11 -12 -15
133 40 3 -5.2164156959660923e-06 -1.1439166467693322e+00 -6.8093992339337497e+00 -5.5904884753825113e-01 12 -7 7
134 40 3 -2.7354236588075787e-04 -2.5769613488334647e-01 -7.3423487189037822e+00 -7.5513529551592212e-02 12 -7 7
250 101 3 -2.5755760802686489e-03 -6.1352408105048228e+00 -6.0021811393682045e-01 -1.4612335414228799e+00 4 15 -25
178 63 3 4.3168713043570603e-03 -6.3352161025344191e+00 -6.6549841378582575e-01 -3.0017829823048120e-01 -41 -11 -13
251 101 3 1.0320954438668845e-04 -5.8556385767626757e+00 -3.2493648412105403e-01 -2.6667161696758881e+00 4 15 -25
292 123 3 -2.3944791976854563e-03 -6.7638415992249437e+00 -5.0536529977273812e+00 -1.0336918043078400e+00 -14 13 34
126 36 4 2.1108692306806190e-02 -5.2398662388225619e+00 -3.0465813432990672e+00 -5.1021161602786806e+00 14 44 -22
108 27 3 -1.8182671158433198e-02 -4.3084785047080238e+00 -3.2359492134834333e+00 -4.4667333522594159e+00 38 29 -51
150 49 3 2.8305919980186958e-03 -4.3040336617116548e+00 -4.1588651231537055e+00 -3.3825665408848340e+00 -10 -8 12
109 27 3 2.9171589881962778e-03 -3.0387304867638956e+00 -2.8790982463184811e+00 -4.9016103827683137e+00 38 29 -51
17 1 1 7.0774489542936581e-05 -1.8328589725188713e+00 -1.4120979730648757e+00 -2.5019110960138780e+00 0 0 0
18 1 1 6.9570082167425343e-05 -8.8746044907151722e-01 -6.9635030835285927e-01 -3.2321806970728191e+00 0 0 0
36 1 1 1.4365704937766791e-04 -2.8225464574111818e+00 -6.5079374306433646e-01 -1.8519776249150597e+00 0 0 0
37 1 1 1.9192816480882811e-04 -1.5333372610292324e+00 -2.5741395923203583e+00 -1.7962501538828308e+00 0 0 0
47 1 1 -7.7526233160509633e-05 -2.3118233635462007e+00 -2.5737027747877304e+00 -5.9995001391519742e-01 0 0 0
58 1 1 -1.7151694043169956e-04 -3.0768601401948783e+00 -1.3754747195100854e+00 -6.6384657435275141e-01 0 0 0
114 30 3 -1.5874993710054755e-03 -1.8222335648180559e+00 -2.4958212355691747e+00 -5.3553022278936790e+00 33 31 -26
151 49 3 -1.6846646631036022e-03 -4.4247110479502103e+00 -4.9433962294867015e+00 -2.3707188978070950e+00 -10 -8 12
143 45 3 2.6300946488587440e-04 -3.2236193389394492e+00 -5.7244073152319492e+00 -1.6579624601219143e+00 2 -7 -1
248 100 3 2.5549355984909317e-04 -5.9493438643847252e-01 -3.3271282657893191e+00 -5.0575470098765178e+00 9 -11 25
144 45 3 -1.7828864168546732e-04 -2.3031028860502882e+00 -6.1815433453218223e+00 -1.1805882616689820e+00 2 -7 -1
115 30 3 -3.4420178441001148e-04 -1.6549075482303717e+00 -1.1470648437474520e+00 -6.0847885049689605e+00 33 31 -26
149 48 3 -5.6967467170185998e-05 -1.4107059989373436e+00 -1.8979485284384173e-01 -6.5711932119751033e+00 16 -1 -10
293 123 3 -3.7634026923605464e-04 -5.7647769540331995e+00 -4.9603851749681960e+00 -1.6735289551526040e+00 -14 13 34
38 1 1 9.1723164526529705e-05 -1.9962913776953320e-01 -3.0943766370688972e+00 -1.7540373436314340e+00 0 0 0
175 62 3 -4.2905824136085097e-04 -2.7148132991786205e+00 -2.9523687029650629e+00 6.0610036140512822e+00 -19 24 28
345 151 3 -2.6732000580637072e-04 -5.5148133298242852e-01 -4.1743800550625263e+00 6.1307207349125967e+00 2 1 2
357 157 4 2.1587976554814016e-02 -6.7568106964197030e+00 -1.5263107419411142e+00 1.5515726431096153e+00 -12 1 10
177 63 3 -1.9841097535695261e-02 -6.5065020206916495e+00 -6.1952155321988001e-01 9.7833240377906383e-01 -41 -11 -13
147 47 4 2.1223405876107757e-02 -7.6541840589264103e+00 -2.0103818154187275e-01 5.5653484653305361e+00 4 -1 -4
106 26 3 -2.1084629136496516e-02 -6.6119531038745150e+00 -7.2767687012965779e-02 5.2810998775277049e+00 17 24 0
48 1 1 -1.7567647340855155e-04 -1.7499564569776163e+00 -3.1054589502441083e+00 6.2964522738153739e-01 0 0 0
27 1 1 -4.7532088664438768e-04 -2.7286540037072369e+00 -1.1169783405313602e+00 1.7604331196948513e+00 0 0 0
346 151 3 -3.9060949252156529e-05 -1.5939454856200783e+00 -3.6720024700332097e+00 6.1839035251423091e+00 2 1 2
59 1 1 -2.9735780882143154e-05 -3.6424259068407866e-01 -3.5861938118739021e+00 6.6464543364772133e-01 0 0 0
28 1 1 -2.3982932279895119e-04 -1.9195363146245188e+00 -2.3289330805240867e+00 1.7723015862255966e+00 0 0 0
159 53 3 4.0317768859537417e-03 -5.6755017687011939e+00 -9.0258954742013520e-01 5.5365064692419494e+00 -27 -24 -13
57 1 1 -8.2945032912591990e-05 -3.2490198183772301e+00 -6.8264864580796203e-01 5.3687743828490675e-01 0 0 0
7 1 1 3.6333657428642280e-05 -4.6454228692976063e-01 -1.2157077041585072e+00 3.4161647705761724e+00 0 0 0
176 62 3 5.1515642347473023e-04 -3.7947898704904612e+00 -2.4487250461541072e+00 6.0605489545110318e+00 -19 24 28
158 53 3 -3.1776524761991318e-03 -4.7454260531153265e+00 -1.6802426927116663e+00 5.8131463853762497e+00 -27 -24 -13
8 1 1 -5.4144505125336417e-05 -7.8523684603854826e-01 -2.3576603874911886e+00 2.5839672973801942e+00 0 0 0
337 147 3 -6.6498938776085592e-04 -3.4869688120349934e+01 -5.0020363056165051e-01 3.9502483109664020e+01 12 13 -12
84 14 4 2.2308125707344736e-02 -2.6814682527767482e+00 1.2018162216162713e+00 -2.1585841591837699e+01 46 -22 31
79 11 3 -2.3590099587120036e-02 -2.3391362307796459e+00 8.7705028057189560e-01 -2.0616568210800775e+01 58 -6 10
78 11 3 8.5192881037742113e-03 -1.8622593553549047e+00 5.0181463844261709e-01 -1.9651886735798815e+01 58 -6 10
80 12 3 -3.4534555379336918e-03 -1.1707857373232808e+00 3.3738774617904990e-02 -1.8490615107249130e+01 63 -7 19
280 117 3 -5.6479037141211885e-04 -3.3522193872232000e+00 9.1559457481628670e-01 -9.5468208142439774e+00 3 -7 -6
267 110 3 -2.7853524860149692e-05 -2.3974555643661608e+00 1.0248629475871500e+00 -1.0425062139673782e+01 7 -37 -16
306 130 3 -1.4779688963803550e-04 -2.7735276439797413e-01 1.3329778157532126e+00 -1.1696111474060263e+01 4 1 0
268 110 3 -3.5316454613724957e-04 -1.3632532472064451e+00 1.1557892341076037e+00 -1.1065339138784033e+01 7 -37 -16
281 117 3 -1.1796626159951001e-04 -4.0222669554943185e+00 7.8763281869265556e-01 -8.4873539284305721e+00 3 -7 -6
154 51 3 -3.7464194955669217e-04 -6.9069711575895560e+00 4.9773480630215214e+00 -2.7817580279050409e+00 27 7 31
155 51 3 1.6147213584681228e-04 -6.2161464523072594e+00 4.7088571543197641e+00 -1.7713470170607359e+00 27 7 31
193 71 3 -7.9254629416969369e-04 -4.6078800685617880e+00 6.8490447012979061e-01 -7.4359494927831804e+00 3 -22 22
296 125 3 -1.5985663096171332e-05 -2.4637188670993337e+00 3.3377143910250204e+00 -6.4208992144229828e+00 18 -1 -16
295 125 3 3.2673980843271611e-05 -1.8750325307930173e+00 2.3919324130099184e+00 -6.7303483400667465e+00 18 -1 -16
15 1 1 3.9967888612848362e-05 -1.7627062877560757e+00 1.5360445437055250e+00 -2.7282546601087438e+00 0 0 0
16 1 1 3.4382662905809575e-05 -7.7482489601878668e-01 7.2453870487359917e-01 -3.3364200611362049e+00 0 0 0
34 1 1 -9.2601625179326158e-05 -1.3606936588436351e+00 2.6312946625636173e+00 -1.8722390697069440e+00 0 0 0
35 1 1 8.3170229962313547e-05 -2.7621089243020869e+00 7.9793656853073769e-01 -1.9259126892630316e+00 0 0 0
45 1 1 1.2789684986641223e-04 -3.0035008919166715e+00 1.4697294439105439e+00 -7.2121063296331711e-01 0 0 0
56 1 1 -8.3632362641659908e-05 -2.2091258231776161e+00 2.6108806352653202e+00 -6.8935652257498425e-01 0 0 0
148 48 3 -6.8457450828895983e-07 -1.1270137975095835e+00 1.2739144867746901e+00 -7.1151723850773765e+00 16 -1 -10
333 144 3 -1.2374526548154796e-04 -3.1329962435370886e+00 4.4503179855284136e+00 -6.0361743665651675e+00 -1 -1 -1
94 19 3 -8.8353082569516544e-06 -4.3821544895854689e+00 4.9628229674492195e+00 -5.5386304605637415e-01 16 17 30
332 144 3 -1.5960087573278769e-04 -3.6877799594858569e+00 5.3425285501225934e+00 -5.5392406379310595e+00 -1 -1 -1
255 104 3 -1.3310481289997584e-04 -3.3852752159418995e+00 5.7076245571572386e+00 -7.3473060876040663e-01 41 -5 -11
33 1 1 -6.6424219837917658e-05 -7.4102016809990791e-03 3.0336188517721450e+00 -1.8039476958645575e+00 0 0 0
202 76 3 -2.9707288422817224e-04 -4.2968997740217860e+00 6.2312988379354444e+00 -4.8193512361635502e+00 -35 -30 45
93 19 3 -6.7892568228374028e-05 -5.6132714831947048e+00 4.2843350243951619e+00 -6.0595388572596476e-01 16 17 30
256 104 3 -1.3104331815958804e-04 -2.3913251714860948e+00 6.3934236447893067e+00 -8.5564821783273859e-01 41 -5 -11
221 86 3 2.7533783409479373e-05 -2.2820146824563400e-01 6.4767730755983450e+00 -1.9756801244435465e+00 4 -46 -18
192 71 3 -7.9126350318871330e-04 -5.0711508586334935e+00 4.7770335485722287e-01 -6.2901763780382307e+00 3 -22 22
222 86 3 -1.2940239745649028e-04 -1.1356181898317321e+00 7.0209148152297214e+00 -1.0019675559596752e+00 4 -46 -18
203 76 3 -2.1149856235050390e-04 -4.8130134828762348e+00 7.0216502778895480e+00 -4.0068882921421256e+00 -35 -30 45
358 158 3 -2.8404133209350424e-04 -5.2073545111231363e+00 7.7218662038383172e+00 -3.0286181886083701e+00 -2 8 -4
359 158 3 -2.4832585514746042e-04 -5.3802221504046139e+00 8.2116989708735488e+00 -1.8347824061140887e+00 -2 8 -4
355 156 3 -2.6602306176305712e-04 -5.0375631304869763e+00 8.4277848702566356e+00 -7.4479181995670474e-01 -1 1 1
258 105 3 8.5937324081887534e-05 -7.6656169355505688e-01 8.3607659395076031e+00 -3.7231446359525633e-01 25 -15 3
238 95 3 3.9333772973497577e-03 -6.3309256838784043e+00 7.2709168395000268e-01 1.6068068306979091e+00 23 -12 6
235 93 3 -5.0939134283268378e-04 -6.0171514697184643e+00 2.0048761597205162e+00 7.3434216502108152e-01 -17 -9 11
169 59 3 -3.1527193010498500e-04 -2.4766799388885714e-02 4.0531129709152651e+00 5.3115293204687806e+00 2 0 3
239 95 3 -4.4014763692342626e-03 -6.1513408451772307e+00 7.9146774473221027e-01 2.9389743053326773e+00 23 -12 6
234 93 3 3.5247325490216086e-04 -5.8517465085109226e+00 2.9505149529970476e+00 1.7562658181596755e-01 -17 -9 11
140 43 3 -8.3110755460427677e-05 -1.4604405150943780e+00 3.3705734077923299e+00 5.2869652630805994e+00 1 42 -4
91 18 3 3.8840488041791410e-04 -3.8027552144826218e+00 2.2305337713485001e+00 4.9183246987359945e+00 49 46 -53
107 26 3 3.5184219720936633e-03 -5.9591704385896520e+00 9.7643648360267010e-01 4.2681224752977283e+00 17 24 0
92 18 3 -6.5093635586799259e-04 -4.7940675010858289e+00 1.7239331169145862e+00 4.7253889862304668e+00 49 46 -53
55 1 1 -1.7382127354858418e-04 -1.5978665734606938e+00 3.0220143701864282e+00 5.3784975423294545e-01 0 0 0
3 1 1 6.0774706856701194e-05 -4.5395835116434041e-01 1.1346497358001808e+00 3.2956522026070281e+00 0 0 0
46 1 1 2.5726002029195609e-04 -3.2482276895439504e+00 7.5371340026290135e-01 4.7889124476709027e-01 0 0 0
25 1 1 4.6884664663113251e-05 -1.9097558140435504e+00 2.2795744118691363e+00 1.7541668829475989e+00 0 0 0
4 1 1 -1.6639665668163536e-05 -7.1522517118183426e-01 2.3371373988055395e+00 2.6101439398715183e+00 0 0 0
44 1 1 -1.3350757411868461e-04 -2.5429779719939838e-01 3.4236470093695717e+00 6.0058663010116009e-01 0 0 0
6 1 2 1.1160666522660426e-04 -2.4703499999999998e+00 6.8199999999999997e-03 2.6358700000000002e+00 0 0 0
5 1 2 1.6165674182495177e-04 -1.2510300000000001e+00 6.0000000000000001e-03 3.3899499999999998e+00 0 0 0
26 1 1 9.2916521048997530e-05 -2.7065083540489652e+00 1.1308030975425882e+00 1.7468950627287581e+00 0 0 0
139 43 3 -2.9131216866568055e-05 -2.4543573344806160e+00 2.8689709789819866e+00 5.1708006008718090e+00 1 42 -4
302 128 3 -2.1598882452761314e-04 -7.4246576312981660e-01 6.6711275094036795e+00 3.0821235420891644e+00 27 -32 -18
118 32 3 -6.6607275203989236e-04 -2.5204225139323672e+01 7.8693027701991687e+00 6.4117956595640360e+00 83 48 -8
119 32 3 -6.6607275203911520e-04 -2.4784330574896291e+01 7.3902621055773929e+00 5.3832550089606634e+00 83 48 -8
356 156 3 -2.5129182549823992e-04 -4.4337252521992765e+00 8.5023329844013400e+00 4.0121025029617174e-01 -1 1 1
265 109 3 -1.7606296623159240e-04 -2.6723527868552104e+00 7.8617452963771717e+00 2.0762497249147795e+00 26 -48 55
266 109 3 -2.1260128697900282e-04 -3.6818265040411315e+00 8.3269399228658099e+00 1.3108544438055343e+00 26 -48 55
301 128 3 -1.7157220149993657e-04 -1.7423182337581486e+00 7.3524022393932471e+00 2.6754110293220537e+00 27 -32 -18
308 131 3 -3.1747143041544190e-03 -1.3605706251685654e-01 1.1775144819256541e+01 1.0460217028480761e+00 -26 3 0
214 82 3 7.9217416742670271e-03 -7.3542884322447558e-02 1.3178436366256289e+01 1.5344729819863501e+00 -35 -26 17
307 131 3 1.1169888137780304e-03 -3.9853703536970464e-01 1.0776032711276331e+01 6.2677324515962396e-01 -26 3 0
257 105 3 -4.0202402342565113e-04 -6.1904814551926612e-01 9.4031977078232689e+00 2.7936424602539658e-02 25 -15 3
290 122 3 -1.3850953066503399e-03 -5.4298066288722548e+00 2.1828812877672388e-01 -5.0208162105437495e+00 8 -1 20
210 80 4 2.1639672140422353e-02 -4.1632790347688131e-02 1.5241000613064211e+01 2.4105337602858787e+00 -45 -12 10
291 122 3 -7.7056079237727837e-04 -5.6375753319640625e+00 2.7144170285537082e-03 -3.8820144630808131e+00 8 -1 20
338 147 3 -6.6498938775849670e-04 -3.4154160279829135e+01 4.5762517944526399e-01 3.9807336882321970e+01 12 13 -12
348 152 3 -6.6430698972422264e-04 -4.1350696378428715e+00 2.9129252286271459e+01 -3.8149128333188429e+01 -2 0 16
347 152 3 -6.6430698973043989e-04 -3.8586666059216426e+00 2.8034840257402681e+01 -3.8543413764281901e+01 -2 0 16
369 163 3 -6.6407179523289561e-04 -2.3589974228240155e+01 3.8848506544589824e+01 -1.9381188831411126e+01 -1 24 2
368 163 3 -6.6407179523275683e-04 -2.3553008205884503e+01 3.8933078689334465e+01 -1.8192427002373307e+01 -1 24 2
370 164 3 -6.6959569373173378e-04 -1.0847170730392058e+01 2.5346866410877059e+01 -3.5145396537253781e-01 -2 6 16
371 164 3 -6.6959569373295502e-04 -1.0980312955489083e+01 2.5198722682513633e+01 8.8216891742553372e-01 -2 6 16
321 138 3 -6.6449392225470527e-04 -8.8793762725458052e+00 3.8827811375203687e+01 2.0433978334083100e+01 2 -32 24
315 135 4 7.1442796445008727e-03 -1.9855235078184137e+01 3.1474060470458753e+01 3.6393101332787232e+01 -7 27 30
294 124 4 7.1442796445008450e-03 -1.9688856998846109e+01 3.0782772151144307e+01 3.5959382124863382e+01 37 49 7
385 172 3 -6.6378445835471589e-04 1.4021160469199039e+01 -2.0172859712503602e+01 -2.9577030843221447e+01 -7 15 9
386 172 3 -6.6378445835449384e-04 1.4227553955812901e+01 -2.0635262020953675e+01 -2.8495160447810850e+01 -7 15 9
349 153 3 -6.6471526220954202e-04 2.8987571872003620e+01 -3.9524435790742992e+01 -1.7949791835874933e+01 6 3 16
350 153 3 -6.6471526220943100e-04 2.9662649614623913e+01 -3.8581221872006630e+01 -1.8208623527083518e+01 6 3 16
383 171 3 -6.7021951495876975e-04 1.2463354317935208e+01 -2.1415601597018455e+01 -4.7377047468254112e+00 -6 3 -3
384 171 3 -7.4659666349280451e-04 1.1638304353826832e+01 -2.0917427802161168e+01 -3.9752358701604504e+00 -6 3 -3
390 174 3 -6.5555527397229141e-04 3.3199579731293397e+01 -3.3349067511652031e+01 2.3659087165844106e+01 8 12 10
389 174 3 -6.1778726298961084e-04 3.4391329719009200e+01 -3.3092940932265812e+01 2.3411063646196698e+01 8 12 10
303 129 3 -6.6545631469072664e-04 2.0516263806817189e+01 -2.3409650270102684e+01 2.1849924229334100e+01 27 1 4
304 129 3 -6.6545631471684463e-04 2.0470937231612233e+01 -2.4293062186858322e+01 2.1033719888182720e+01 27 1 4
161 54 3 -6.1036447635048896e-04 3.3635317049365959e+01 -2.7351188713654075e+01 2.5173362464020688e+01 13 5 26
160 54 3 -6.7682179693384636e-04 3.4763672190552491e+01 -2.6932067182261278e+01 2.5101891553456582e+01 13 5 26
382 170 3 -6.6749402402901947e-04 2.7734881734536661e+01 -1.2049616334640119e+01 -1.6868132852331215e+01 15 25 7
87 16 3 -3.9734849216439827e-04 2.1910753998731711e-01 -7.8709649895784839e-01 -1.6638655249112023e+01 -13 24 -2
273 113 4 2.2056009065624785e-02 1.3388770631322227e+00 -1.3554013477976316e+01 -1.1215383433422963e+01 -11 7 7
278 116 3 -2.3149806865387687e-02 1.9887173748497207e+00 -1.2684959768005742e+01 -1.1005372968437026e+01 -1 10 1
279 116 3 8.3136645726949593e-03 2.6716914785351236e+00 -1.1833869139595187e+01 -1.0831190202006129e+01 -1 10 1
190 70 3 1.1694936918830723e-03 4.3134369941788231e+00 -9.8131235877723952e+00 -1.0408035460804518e+01 16 -48 3
191 70 3 -3.3570049296276910e-03 3.6221699504869846e+00 -1.0666998149816610e+01 -1.0607174803871160e+01 16 -48 3
310 132 3 1.7387600452332952e-04 4.5659269031361207e+00 -7.4173609239860552e+00 -9.6309809044795482e+00 -5 7 36
312 133 3 -3.8553061195520377e-04 5.1462180597945641e+00 -8.5848103312915196e+00 -1.0091102835872629e+01 4 -2 -11
311 133 3 -7.3532279744437101e-05 6.5520552229934044e+00 -8.5715989908593588e+00 -9.6482214945526685e+00 4 -2 -11
166 57 3 -4.0333074783237971e-04 8.8883477465965157e+00 -8.7348226818013135e+00 -8.4720791617387725e+00 31 -7 -20
167 57 3 -4.5727293757981402e-04 7.5628143273749791e+00 -8.6104756166410379e+00 -9.1186192132893886e+00 31 -7 -20
322 139 3 2.4655234740473403e-04 9.2695006841249494e+00 -9.9939078268164341e+00 -8.1183516097080446e+00 -7 -18 9
74 9 3 3.9248296790324669e-03 6.8518378137025548e+00 -4.5449818056150439e+00 -1.0111860526296628e+01 63 5 -15
381 170 3 -6.6749402400442803e-04 2.8206197203766173e+01 -1.2807722948923036e+01 -1.6039217098590868e+01 15 25 7
88 16 3 -1.0344319790539513e-04 9.8743870091994690e-01 -1.3401819589779695e+00 -1.5802577909136996e+01 -13 24 -2
62 2 3 -2.4044818960720776e-03 6.0038068658264150e+00 -4.1446296903142157e+00 -1.0963057775905932e+01 27 -14 58
102 23 3 -2.2981359422139663e-04 1.8664254832195117e+00 -1.7538937389361724e+00 -1.4955318522305621e+01 36 -5 -65
61 2 3 6.8783767051382172e-04 5.0687849623425372e+00 -3.7656135592280129e+00 -1.1776409957388340e+01 27 -14 58
101 23 3 -5.0870009136616545e-04 2.6216524852663863e+00 -2.2665652492752333e+00 -1.4116996033683066e+01 36 -5 -65
309 132 3 -4.4824943744761758e-05 4.0573348110888947e+00 -6.4447540288486227e+00 -9.2526443894762949e+00 -5 7 36
142 44 3 1.7064160025252739e-04 3.4420889524391063e+00 -2.7776863383036430e+00 -1.3325231811117298e+01 -19 2 4
284 119 3 -5.4150146652304221e-05 3.7446007028432371e+00 -5.2907422149751415e+00 -8.7031905863182590e+00 14 16 24
141 44 3 -5.7284233431270648e-04 4.1977514777954177e+00 -3.2541925132328604e+00 -1.2531599764536145e+01 -19 2 4
83 13 3 -8.1221487984520224e-05 4.7603691859837873e+00 -1.0242733264399324e-01 -1.0551707357571814e+01 -29 16 -45
172 60 3 -1.9316329650815450e-04 5.5742801582982970e+00 -6.9423766352123328e-01 -9.6894004399636326e+00 -8 2 -2
171 60 3 -8.4743412594016909e-04 6.5051887479502613e+00 -1.2117435319614167e+00 -8.9331942616453297e+00 -8 2 -2
168 58 4 2.2341587066203546e-02 8.8248851659896062e+00 -4.7362588030608848e+00 -9.1928663213381228e+00 -22 -41 -36
75 9 3 -1.9447589396789360e-02 7.7353585829662030e+00 -4.9648291738021388e+00 -9.1917371522022489e+00 63 5 -15
182 65 3 -1.6424069287705109e-03 7.3446833081770384e+00 -1.7737990870816747e+00 -8.1614829968379361e+00 -6 5 -3
285 119 3 -1.0783245844858680e-07 3.5765997652243264e+00 -4.2417224698031655e+00 -8.0374904891182695e+00 14 16 24
125 35 3 4.1915872584574049e-03 7.0719834729108273e+00 -5.4753847614967865e+00 -8.0155384269077832e+00 6 9 14
105 25 4 2.1503097672558022e-02 7.2708997703586551e+00 -1.3586261609246927e+01 -5.1651627951071815e+00 35 32 41
245 98 3 3.8183723046385995e-03 1.3081741441597602e+01 -1.3952579281103089e+01 -1.6709939205898061e+00 16 -15 -7
71 7 3 -1.6999597650882367e-03 1.1765343774702988e+01 -1.3861451982397048e+01 -1.3291182920455780e+00 56 33 16
70 7 3 1.9229514493207533e-04 1.0872677560866071e+01 -1.3549900945108140e+01 -2.3661594002306043e+00 56 33 16
244 98 3 -2.0262385188156609e-02 1.4395162505616415e+01 -1.3987487678131830e+01 -1.8415628245821027e+00 16 -15 -7
317 136 3 3.2370074668261611e-03 1.5058996141085830e+01 -1.3671159064379129e+01 -5.8215762807683236e-01 -17 -4 -44
336 146 4 2.1676152951778854e-02 1.4875124598710403e+01 -1.4115397461144564e+01 -2.8158245606131143e+00 -4 -7 12
123 34 3 -2.6181492479362967e-04 6.6126337452929675e+00 -7.9181105022232252e+00 -5.6093642369798395e+00 -16 -26 -10
90 17 3 -2.3428801710951436e-03 9.9365924060385247e+00 -1.3272601917070853e+01 -3.2494336698518960e+00 7 34 68
89 17 3 3.3578370010762734e-03 8.9922654987061534e+00 -1.3037935698211038e+01 -3.9829484906585173e+00 7 34 68
129 38 3 7.1355430782764351e-04 6.9259450128823863e+00 -9.0100650964067182e+00 -5.3747277110842093e+00 -4 -2 -15
130 38 3 -2.4051580329389755e-03 7.3373786080866985e+00 -1.0273669904379730e+01 -5.2490331881679699e+00 -4 -2 -15
103 24 3 -2.0372407216571690e-02 7.8604934014718442e+00 -1.2752634974311778e+01 -4.7620643544763412e+00 -11 -4 48
104 24 3 4.3509226240212029e-03 7.6134711710367586e+00 -1.1461455072166663e+01 -4.9820090587201253e+00 -11 -4 48
68 6 3 -2.3307376935688129e-03 1.0972236401437566e+01 -7.2763791228563708e+00 -9.8359832335127428e-01 0 -1 71
380 169 3 5.2569566128897460e-04 1.2903391763247972e+01 -1.0090222969731800e+01 -3.0102798350326871e+00 -7 7 -2
156 52 3 1.8709879812418145e-04 8.0626943362898835e+00 -6.4435615322748205e+00 -2.9020999175843198e+00 -105 -19 7
157 52 3 5.1481119992197177e-04 8.4053637126196872e+00 -7.4863012148715260e+00 -2.4495924173535597e+00 -105 -19 7
318 137 3 -3.3582006210185894e-05 9.8194843856359064e+00 -1.2456225858848326e+01 -7.7394865348842465e+00 -11 -22 7
319 137 3 -2.0670594044726875e-03 1.0253913295015066e+01 -1.3549477822348162e+01 -7.5832476533813358e+00 -11 -22 7
69 6 3 3.8461189083298375e-04 1.0687686875754702e+01 -7.9199023248538500e+00 -3.4841420046521514e-02 0 -1 71
230 90 3 -2.9219886514161852e-04 9.4870855463636516e+00 -7.4040255918098721e+00 -7.8294175665028876e+00 2 -17 -18
379 169 3 -2.5914294868109311e-03 1.3944647158893671e+01 -1.0670553595276049e+01 -3.2016476513728924e+00 -7 7 -2
323 139 3 -3.7678384831600631e-04 9.4383433971091257e+00 -1.1204091337973258e+01 -7.8598149633268122e+00 -7 -18 9
122 34 3 7.6772642247607305e-04 6.2410107604531682e+00 -6.6259619648896164e+00 -5.8223845865128228e+00 -16 -26 -10
264 108 3 -2.5253494317550168e-04 4.9764858418674933e+00 -6.0303369439002630e+00 -5.1838784148539574e+00 4 65 -8
263 108 3 -2.2392683036621952e-04 3.9965692936506221e+00 -5.6183966320071947e+00 -4.8298761560355592e+00 4 65 -8
286 120 3 -2.1264899207842913e-04 2.6664353333265405e+00 -5.0143891827892793e+00 -4.6754233592972732e+00 3 -20 6
19 1 1 2.3182014845576221e-05 7.9524196515239687e-01 -2.2898886503553806e+00 -2.3698416132574471e+00 0 0 0
39 1 1 -9.1872365788808752e-05 2.0548374660959103e+00 -2.4262194548381575e+00 -1.7048006474270330e+00 0 0 0
40 1 1 -7.1047068138117841e-05 2.8375573094516464e+00 -1.2388141604546155e+00 -1.6466305296153152e+00 0 0 0
49 1 1 -1.2044038287420400e-04 1.7911437800798400e+00 -3.1440794047647551e+00 -5.4969358721117711e-01 0 0 0
52 1 1 -8.2483898700077413e-05 3.4974716621681119e+00 -7.8472938368818645e-01 -4.6246144547109536e-01 0 0 0
60 1 1 2.6323688597659767e-05 4.3976015440193600e-01 -3.5839279628135161e+00 -5.5126929073644459e-01 0 0 0
394 176 3 -4.2090373304873654e-04 5.3692561478969525e+00 -2.2131326029555733e+00 -3.1649640464468862e+00 6 -19 -2
393 176 3 -1.1188112685497908e-04 5.7446807746438671e+00 -2.1219759495992241e+00 -1.9177024872923858e+00 6 -19 -2
20 1 1 7.7717610041338342e-05 4.7263883277600255e-01 -1.1845764500603198e+00 -3.2225943139153381e+00 0 0 0
282 118 3 -9.9161413772270654e-04 4.9697952597870811e+00 -2.1544972448380864e+00 -4.3932130531718618e+00 27 -21 16
283 118 3 -8.1587449724356345e-04 4.4055234575446844e+00 -2.0686704142188832e+00 -5.5080297875901403e+00 27 -21 16
377 167 3 -3.8206966981188528e-05 6.0383715100296174e+00 -2.0613758515415586e+00 -7.6308393817719822e-01 2 -11 2
96 20 3 -1.1314051095435637e-04 3.6821975188392142e+00 -1.9777256024780705e+00 -6.6831629058982056e+00 52 -18 -45
216 83 3 -1.3294210524408823e-04 2.7819629943491693e+00 -7.2012006348655611e-01 -6.8228030808632401e+00 13 17 -3
287 120 3 -1.8662740042106607e-05 1.6270588211280113e+00 -4.5900182179732809e+00 -4.6010793839638611e+00 3 -20 6
95 20 3 6.5462858594204920e-05 3.5381810587163121e+00 -3.1559032691795106e+00 -7.4211942890878042e+00 52 -18 -45
249 100 3 -2.9266064025836036e-04 2.5352338867751828e-01 -4.0166321324954382e+00 -4.7830931330663669e+00 9 -11 25
11 1 1 -1.2616828494031382e-04 2.5454604778636085e+00 -1.0348146871978041e-01 -2.4122592278726187e+00 0 0 0
12 1 1 1.8735218286700106e-06 1.3966510423409411e+00 -6.8396058081602595e-02 -3.2813821217154802e+00 0 0 0
201 75 3 3.6765885806866461e-03 1.1423866139287949e+01 -6.5385184407330330e+00 -1.9750802419291675e+00 2 27 17
200 75 3 -1.9587292625189316e-02 1.2042529208472255e+01 -5.7576450575094507e+00 -2.8657921741455978e+00 2 27 17
276 115 3 3.1111265941129868e-04 7.6967407241314270e+00 -5.2572246301237735e+00 -3.3528478984206251e+00 -11 -11 -29
229 90 3 -1.9901873736778847e-03 9.7868827771929290e+00 -6.4754419475139109e+00 -7.3067957226811835e+00 2 -17 -18
277 115 3 -8.7344299810322018e-05 7.2828305094349695e+00 -4.1466956206926735e+00 -3.8185668492410807e+00 -11 -11 -29
124 35 3 -1.7706072750751549e-03 6.7422774499223186e+00 -5.9733559186599283e+00 -7.0329778215342378e+00 6 9 14
246 99 3 3.2011032996783623e-03 1.1440278066591096e+01 -5.5589379742457830e+00 -4.1532070214951098e+00 -8 -12 2
247 99 3 -1.5034985897735206e-03 1.0905536748841627e+01 -5.4286304405697932e+00 -5.1483754536282760e+00 -8 -12 2
212 81 3 -5.5334700959998318e-04 1.0289416662177043e+01 -5.1824465483990991e+00 -6.4984615370258725e+00 10 -11 -3
206 78 3 -1.5206507330026917e-03 9.0467535564973165e+00 -1.9706262424540431e+00 -5.1144398530446109e+00 -7 4 -3
135 41 3 -1.7881427380951522e-03 8.9601464345996700e+00 -1.3905139371518149e+00 -4.1563008522082709e+00 -7 12 -15
136 41 3 2.5380272400705312e-04 9.0623494816965096e+00 -8.8208570918415030e-01 -2.7657541476624252e+00 -7 12 -15
98 21 3 -9.1259673255170148e-05 9.4375780726722187e+00 -1.7952079573005704e+00 -1.6310408275604222e+00 20 -11 -22
207 78 3 -3.5295012828773925e-04 9.0190327664352772e+00 -2.8304746230490982e+00 -6.4266789483174982e+00 -7 4 -3
211 81 3 -1.8971555954387063e-03 9.6469412626577284e+00 -4.0736950583946303e+00 -6.4983328102968780e+00 10 -11 -3
181 65 3 -2.7465212858643340e-03 8.1024376220663168e+00 -2.3176084655159852e+00 -7.4365728526323283e+00 -6 5 -3
97 21 3 -4.9917076288677475e-04 9.6133177870562996e+00 -2.5285646241999045e+00 -7.9542694950163939e-01 20 -11 -22
231 91 4 2.1289413597329929e-02 1.3028545156015744e+01 -5.3230910659421422e+00 -2.6227896776262716e+00 9 18 8
330 143 3 4.9869814322664463e-04 1.8163494936836069e+00 -1.4653539200789320e+01 4.0069919887495811e+00 3 -18 -5
392 175 3 3.4845275556582567e-03 3.0016857129831074e+00 -1.6662785108367387e+01 4.8708174468220697e+00 -2 -1 5
146 46 3 -2.1084954417087104e-02 3.9028381577656512e+00 -1.7678507211585366e+01 5.2573719979495035e+00 29 -18 -2
145 46 3 3.7961421899994352e-03 5.2019982775605245e+00 -1.7284441013663429e+01 5.1771916223176104e+00 29 -18 -2
183 66 3 -2.6577593724691068e-03 6.3716087117952993e+00 -1.6898619799836439e+01 5.1344304475749913e+00 25 23 4
189 69 4 2.1876555111191187e-02 3.6457545993435470e+00 -1.8710341313831307e+01 5.2609710948606709e+00 7 -9 2
391 175 3 -2.3173852849146803e-03 2.4021629334140115e+00 -1.5707053624585571e+01 4.4872065225439606e+00 -2 -1 5
331 143 3 -4.2465386232065638e-04 1.3630265359918128e+00 -1.3665480970989249e+01 3.5089907423342819e+00 3 -18 -5
184 66 3 6.9918717583226930e-04 7.4487879674055053e+00 -1.6273923533630924e+01 4.9515257891116482e+00 25 23 4
152 50 3 -5.0080434984806077e-04 8.3372016823765147e+00 -1.5599563942003769e+01 4.5541065776190548e+00 34 -4 -12
153 50 3 -1.1878639920538669e-04 9.1845612629326556e+00 -1.4870026381805030e+01 4.0051012565751485e+00 34 -4 -12
120 33 3 -3.3487046517101382e-04 9.8218355881308437e+00 -1.3980558733717677e+01 3.3915658896728162e+00 38 -26 7
360 159 3 4.2980432889176690e-04 1.6288697022849117e+01 -1.3201765859705908e+01 1.6190504113779958e+00 -6 -7 -7
316 136 3 -2.1650511499631542e-03 1.5679811124812664e+01 -1.3438859028272031e+01 5.1333778758797721e-01 -17 -4 -44
138 42 3 -1.7980096251201533e-04 8.4446097833098210e-01 -7.9102407643409904e+00 6.9375201285425481e-01 -6 -10 -8
195 72 3 -2.7095752007463836e-04 6.5570719844553893e-01 -9.2113402670930178e+00 1.1536569094513336e+00 -4 10 1
163 55 3 -1.0319860031264561e-04 1.0324896488942590e+00 -1.2558266980064388e+01 2.9781114791236667e+00 -7 -7 -36
162 55 3 -3.3466732878821570e-04 7.2814740498610242e-01 -1.1549009804294442e+01 2.3510579861408929e+00 -7 -7 -36
194 72 3 -3.7487053483574451e-04 6.0288812430927641e-01 -1.0426292885717023e+01 1.6617878821426286e+00 -4 10 1
137 42 3 -1.7929210087918451e-04 1.8014123198878846e+00 -7.0777202519116580e+00 1.5474023988011285e+00 -6 -10 -8